85
Energy = -1822.757112100
Ce    6.0506298   -6.7670690   24.6189337 
N     3.6806513   -5.8546389   24.4174811 
N     8.6273210   -9.1588077   25.0239683 
N     4.3940605   -7.2212614   22.7832962 
N     6.4385051   -9.1980752   25.6696839 
N     6.8883881   -5.6395050   26.8133434 
N     7.0436376   -4.5369099   24.8493543 
C     7.6544772   -9.6629169   25.8044498 
C     2.7561146   -4.9702171   25.0876223 
H     2.1674975   -4.3821385   24.3531347 
C     7.5380103   -3.5178042   23.9559342 
H     7.5945187   -2.5335855   24.4655333 
C     3.4377429   -6.4171189   23.2391586 
C     5.3070450   -9.8529529   26.3103547 
H     5.5418329  -10.1146248   27.3625337 
C     7.2790012   -4.5498479   26.1583649 
C     7.3214052   -7.2555619   28.5826207 
H     8.2163179   -7.6138349   28.0443639 
H     7.4891409   -7.3841587   29.6670957 
H     6.4712870   -7.8947062   28.2860485 
C     7.0488718   -5.7932239   28.2399723 
H     7.9317372   -5.2280092   28.6027234 
C    10.0608019   -9.3544347   25.1237080 
H    10.2635986  -10.0958921   25.9125880 
C     4.3538266   -7.8391597   21.4800522 
H     3.3078572   -7.9960361   21.1447548 
C    10.6019326   -9.9054322   23.8054894 
H    10.3971425   -9.1986321   22.9817688 
H    11.6935718  -10.0603279   23.8595253 
H    10.1233168  -10.8676737   23.5549094 
C     2.1648246   -6.1899444   22.4475745 
H     2.3951840   -5.8120328   21.4372843 
H     1.6239003   -7.1438656   22.3225641 
H     1.4830307   -5.4773161   22.9315015 
C     4.1277762   -8.8877894   26.3534675 
H     3.8046288   -8.6052773   25.3336721 
H     3.2587778   -9.3448678   26.8570433 
H     4.3816674   -7.9674112   26.9105955 
C     5.0155461   -9.2143076   21.5481572 
H     4.4793493   -9.8675144   22.2586750 
H     5.0229835   -9.7084523   20.5599666 
H     6.0559846   -9.1109329   21.9045095 
C    10.7461776   -8.0432047   25.5092309 
H    10.3726524   -7.6774008   26.4809781 
H    11.8407964   -8.1713231   25.5794139 
H    10.5321733   -7.2665342   24.7537842 
C     1.7602136   -5.7489414   25.9516562 
H     2.2977321   -6.3214563   26.7293169 
H     1.0437673   -5.0737784   26.4545467 
H     1.1851567   -6.4680337   25.3414703 
C     8.0591786  -10.7283824   26.7965158 
H     7.2010675  -11.1294718   27.3491272 
H     8.5655485  -11.5666847   26.2895374 
H     8.7639936  -10.3091951   27.5354589 
C     5.8329490   -5.2753046   29.0127220 
H     4.9240328   -5.8253571   28.7083639 
H     5.9620672   -5.3976386   30.1039978 
H     5.6599016   -4.2050796   28.8046043 
C     8.9413897   -3.8642910   23.4463258 
H     8.9179438   -4.8493788   22.9477568 
H     9.3143091   -3.1064401   22.7330540 
H     9.6623345   -3.9334839   24.2804970 
C     6.5677403   -3.3586768   22.7866980 
H     5.5613722   -3.0876630   23.1487708 
H     6.9090808   -2.5777090   22.0840743 
H     6.4798538   -4.3070560   22.2237955 
C     3.5278636   -3.9575682   25.9285272 
H     4.2068086   -3.3645579   25.2934280 
H     2.8399055   -3.2685928   26.4506630 
H     4.1467795   -4.4714688   26.6848450 
C     7.9388289   -3.3572026   26.8246619 
H     8.9394139   -3.1735036   26.3979109 
H     7.3362932   -2.4510384   26.6414509 
H     8.0473514   -3.4734595   27.9109905 
C     4.9176439  -11.1345214   25.5723457 
H     5.7475731  -11.8626199   25.5588724 
H     4.0461717  -11.6191381   26.0475186 
H     4.6606432  -10.9015363   24.5238518 
C     5.0445696   -6.9628131   20.4297555 
H     6.0991545   -6.8001113   20.7162107 
H     5.0220945   -7.4297553   19.4279447 
H     4.5632047   -5.9715136   20.3581151 
O     7.6700193   -7.3616619   23.2170119 
H     8.3184403   -8.5030874   24.2612651 
H     7.9376177   -7.3970378   22.2919215 
