67
 Energy =   -2271.5134189570
 N    3.8481050   -6.3681137   24.6557100  0.00    0.0505872   -0.0767788    0.0679482
 N    4.9911244   -6.8953384   22.7834523  0.00    0.0658052   -0.0365101    0.0755408
 N    6.7158491   -5.4659888   26.6625899  0.00   -0.0240527   -0.1279344    0.0169933
 N    7.7175783   -3.2924196   26.4770266  0.00   -0.0257014   -0.0558522   -0.0185003
 N    7.0420957   -4.6131128   24.5995927  0.00   -0.1085596   -0.1211486    0.0803680
 C    2.8445474   -5.5417609   25.3079383  0.00   -0.0083179    0.0049363    0.0269697
 H    2.0792689   -5.2412399   24.5688660  0.00    0.0076423   -0.0072381    0.0012751
 C    7.2421285   -3.5490035   23.6423082  0.00    0.0106221    0.0016591   -0.0677138
 H    7.5181875   -2.6169464   24.1697397  0.00   -0.0058742   -0.0185421    0.0101340
 C    3.8282073   -6.5500737   23.3321040  0.00   -0.0816692   -0.0347349   -0.0190755
 C    7.1603375   -4.4528237   25.9113390  0.00    0.0276767    0.0610957   -0.0398139
 C    7.9965269   -6.8567839   28.2198869  0.00    0.0251698    0.0596888   -0.0345981
 H    8.9077970   -6.7769164   27.6027687  0.00    0.0020361   -0.0135564   -0.0055669
 H    8.3027917   -6.9887717   29.2740881  0.00   -0.0148079   -0.0249950   -0.0173575
 H    7.4518557   -7.7620137   27.8974775  0.00   -0.0210938   -0.0534705    0.0238953
 C    7.1234700   -5.6123010   28.0452652  0.00   -0.0013935   -0.0096722    0.0307385
 H    7.7482823   -4.7497511   28.3426305  0.00   -0.0027405   -0.0098467   -0.0073517
 C    2.6459248   -5.6278515   21.3535543  0.00    0.0041045    0.0064562   -0.0215645
 H    2.3696375   -6.2391364   20.4690242  0.00    0.0014709    0.0014479    0.0039600
 H    1.9106462   -4.7985228   21.4269436  0.00    0.0029532   -0.0032549    0.0030122
 H    3.6350465   -5.1829185   21.1713927  0.00   -0.0014044    0.0001747   -0.0014797
 C    5.1114262   -7.5356943   21.4883026  0.00    0.0194086   -0.0103556   -0.0351312
 H    4.1282445   -7.5543619   20.9824397  0.00    0.0007494    0.0044947    0.0112694
 C    1.4130877   -6.9744019   22.9632820  0.00   -0.0140324   -0.0044334    0.0129066
 H    0.6280408   -6.2163778   23.1674879  0.00    0.0036996   -0.0023973   -0.0007960
 H    1.0301963   -7.6423116   22.1629056  0.00    0.0055227    0.0047314    0.0000081
 H    1.5511944   -7.5805178   23.8704139  0.00   -0.0007565    0.0002700    0.0007078
 C    5.5625557   -8.9908307   21.6377827  0.00    0.0076499    0.0140958    0.0260636
 H    4.8247550   -9.5704791   22.2165727  0.00   -0.0367231   -0.0262846    0.0160032
 H    5.6763885   -9.4719796   20.6487250  0.00   -0.0039609   -0.0056955    0.0157206
 H    6.5315490   -9.0353694   22.1651664  0.00    0.0284291    0.0171386   -0.0080107
 C    2.1293435   -6.2796152   26.4401868  0.00    0.0080878   -0.0229763   -0.0150125
 H    2.8175958   -6.4637995   27.2825964  0.00    0.0397121   -0.0241136    0.0154884
 H    1.2859236   -5.6788422   26.8257083  0.00    0.0035076   -0.0059859    0.0028573
 H    1.7353346   -7.2554404   26.1087857  0.00   -0.0068648    0.0002396   -0.0076796
 C    9.0256815   -2.8255755   26.1178269  0.00    0.0270238    0.0042097   -0.0125841
 H    9.0129786   -1.8003842   25.6910583  0.00   -0.0044340   -0.0050515    0.0032205
 H    9.6944722   -2.8064086   27.0055213  0.00   -0.0051603   -0.0020898   -0.0033953
 H    9.4764121   -3.5002919   25.3749058  0.00    0.0034848    0.0018572    0.0021204
 C    5.9200160   -5.6591272   28.9877090  0.00    0.0213638    0.0174726   -0.0060344
 H    5.2635502   -6.5092625   28.7370805  0.00   -0.0281331   -0.0328247   -0.0081704
 H    6.2413645   -5.7714257   30.0392250  0.00   -0.0030985   -0.0055800   -0.0069361
 H    5.3159065   -4.7392250   28.9126306  0.00   -0.0034948   -0.0079133   -0.0025376
 C    8.3726507   -3.8980927   22.6705597  0.00    0.0023737   -0.0076486    0.0016657
 H    8.0970719   -4.7804339   22.0661385  0.00    0.0051564    0.0001100    0.0067660
 H    8.5741654   -3.0637318   21.9750286  0.00   -0.0045305    0.0018935    0.0064481
 H    9.3083379   -4.1309476   23.2083106  0.00   -0.0048004   -0.0049882   -0.0025555
 C    5.9581519   -3.2588622   22.8644179  0.00   -0.0065209   -0.0027125    0.0095952
 H    5.1668836   -2.8881569   23.5366453  0.00   -0.0024838    0.0034389   -0.0002748
 H    6.1316232   -2.4952626   22.0844370  0.00    0.0017129   -0.0051597    0.0054502
 H    5.5919603   -4.1823492   22.3829440  0.00    0.0016093    0.0020114   -0.0042076
 C    3.4619905   -4.2510170   25.8479140  0.00    0.0014659   -0.0015157   -0.0037404
 H    3.8905270   -3.6507387   25.0290899  0.00   -0.0000101    0.0016953    0.0002061
 H    2.7025863   -3.6374194   26.3672883  0.00    0.0037385   -0.0026339   -0.0019461
 H    4.2758496   -4.4866901   26.5553259  0.00   -0.0031176   -0.0000109    0.0020905
 C    7.0298185   -2.5414485   27.4879224  0.00   -0.0127832    0.0038691    0.0146648
 H    7.5675263   -2.5300118   28.4601463  0.00    0.0001203   -0.0000854   -0.0044601
 H    6.9004340   -1.4855839   27.1684168  0.00    0.0015361   -0.0075688   -0.0009600
 H    6.0279700   -2.9646197   27.6543128  0.00   -0.0015399    0.0041042    0.0006335
 C    6.0953288   -6.7764198   20.5993562  0.00    0.0103600    0.0008071    0.0040014
 H    7.0895202   -6.7663211   21.0789223  0.00   -0.0019177   -0.0048950    0.0064447
 H    6.1915831   -7.2562833   19.6088371  0.00   -0.0024558    0.0004522    0.0041301
 H    5.7815215   -5.7292861   20.4454716  0.00   -0.0023539   -0.0007434   -0.0029603
 N    2.6641406   -6.3901768   22.5701998  0.00    0.0520519    0.0041763    0.0284102
Yb    6.2306222   -6.8018855   24.7451487  0.00    0.4860665    0.6519549   -0.6040689
 O    7.9832947   -7.4039199   23.7393433  0.00   -0.5124281   -0.0654639    0.3972625
 H    8.5349201   -6.8269486   23.2000968  0.00    0.0144107   -0.0244292    0.0257851
67
 Energy =   -2271.5167881100
 N    3.8502550   -6.3713662   24.6585914  0.00   -0.0174494   -0.0440475   -0.0349332
 N    4.9939170   -6.8968833   22.7866533  0.00   -0.0109092   -0.0221433   -0.0343505
 N    6.7148404   -5.4714009   26.6633099  0.00    0.0543856    0.0617171   -0.0660847
 N    7.7164948   -3.2947780   26.4762428  0.00    0.0322977    0.0347683   -0.0019245
 N    7.0375045   -4.6182367   24.6029952  0.00   -0.0147788    0.1064849   -0.1619398
 C    2.8442029   -5.5415564   25.3090866  0.00    0.0262865   -0.0322656   -0.0005045
 H    2.0795983   -5.2415523   24.5689277  0.00    0.0075645   -0.0068794    0.0019030
 C    7.2425789   -3.5489278   23.6394416  0.00   -0.0208442   -0.0465755    0.0307172
 H    7.5179383   -2.6177254   24.1701685  0.00   -0.0075529   -0.0345515    0.0026788
 C    3.8247568   -6.5515461   23.3313013  0.00    0.0774742   -0.0399211    0.1381029
 C    7.1615154   -4.4502323   25.9096536  0.00   -0.0773964   -0.1655634    0.2015653
 C    7.9976074   -6.8542506   28.2184206  0.00   -0.0252112   -0.0404094    0.0023701
 H    8.9078971   -6.7774818   27.6025300  0.00    0.0217479   -0.0044387   -0.0215083
 H    8.3021817   -6.9898230   29.2733512  0.00   -0.0088096   -0.0160006   -0.0240389
 H    7.4509792   -7.7642721   27.8984882  0.00    0.0102147    0.0064226    0.0324749
 C    7.1234230   -5.6127060   28.0465665  0.00   -0.0010408   -0.0087251   -0.0110593
 H    7.7481769   -4.7501621   28.3423183  0.00    0.0004618    0.0007286   -0.0060653
 C    2.6461003   -5.6275825   21.3526482  0.00    0.0122067   -0.0049345    0.0127246
 H    2.3697016   -6.2390798   20.4691989  0.00   -0.0004163   -0.0044485   -0.0016650
 H    1.9107713   -4.7986664   21.4270792  0.00    0.0021611   -0.0035692    0.0041872
 H    3.6349876   -5.1829132   21.1713354  0.00    0.0045343    0.0044609   -0.0064638
 C    5.1122540   -7.5361316   21.4868181  0.00    0.0121999    0.0036357    0.0336232
 H    4.1282817   -7.5541726   20.9829210  0.00    0.0016571    0.0048942    0.0087860
 C    1.4125008   -6.9745968   22.9638368  0.00    0.0173297    0.0053515    0.0020584
 H    0.6282033   -6.2164882   23.1674640  0.00    0.0019319    0.0027078    0.0003789
 H    1.0304375   -7.6421192   22.1629149  0.00    0.0076563    0.0054105   -0.0009632
 H    1.5511722   -7.5805134   23.8704521  0.00   -0.0013916   -0.0031361    0.0065810
 C    5.5628892   -8.9902319   21.6388879  0.00   -0.0082817   -0.0175897    0.0087196
 H    4.8232121   -9.5715915   22.2172530  0.00   -0.0104450   -0.0047630    0.0051743
 H    5.6762299   -9.4722183   20.6493921  0.00   -0.0027921   -0.0042792    0.0227285
 H    6.5327630   -9.0346397   22.1648276  0.00    0.0198344    0.0131890   -0.0036261
 C    2.1296969   -6.2805941   26.4395587  0.00    0.0112524   -0.0022776    0.0293767
 H    2.8192897   -6.4648251   27.2832585  0.00    0.0205980   -0.0218004   -0.0083802
 H    1.2860824   -5.6791036   26.8258381  0.00    0.0102161   -0.0133204    0.0017142
 H    1.7350566   -7.2554372   26.1084685  0.00   -0.0073595   -0.0095004   -0.0123478
 C    9.0268285   -2.8253883   26.1172916  0.00   -0.0176241   -0.0109725   -0.0020771
 H    9.0127909   -1.8005891   25.6911923  0.00   -0.0047092    0.0005220    0.0002155
 H    9.6942580   -2.8064868   27.0053740  0.00   -0.0048554   -0.0035416   -0.0005236
 H    9.4765630   -3.5002032   25.3749922  0.00    0.0128855   -0.0033060   -0.0061844
 C    5.9209340   -5.6583858   28.9874553  0.00   -0.0197893   -0.0328932    0.0002594
 H    5.2623743   -6.5106517   28.7367373  0.00    0.0017266    0.0031705   -0.0003940
 H    6.2412487   -5.7716596   30.0389326  0.00   -0.0016360   -0.0034050   -0.0010481
 H    5.3157700   -4.7395595   28.9125260  0.00   -0.0031448   -0.0015576   -0.0040515
 C    8.3727512   -3.8984085   22.6706286  0.00    0.0045881   -0.0071514   -0.0031180
 H    8.0972913   -4.7804217   22.0664235  0.00    0.0050040   -0.0044356   -0.0032216
 H    8.5739707   -3.0636431   21.9752997  0.00   -0.0034901   -0.0028924    0.0064798
 H    9.3081360   -4.1311488   23.2081992  0.00    0.0008154   -0.0041670    0.0008729
 C    5.9578748   -3.2589743   22.8648262  0.00   -0.0008900   -0.0015181   -0.0070794
 H    5.1667776   -2.8880104   23.5366370  0.00   -0.0020060    0.0022121    0.0036895
 H    6.1316918   -2.4954778   22.0846697  0.00   -0.0009271   -0.0058448    0.0052078
 H    5.5920287   -4.1822621   22.3827684  0.00   -0.0024473    0.0023361   -0.0048159
 C    3.4620583   -4.2510843   25.8477614  0.00    0.0013569   -0.0016930    0.0048637
 H    3.8905297   -3.6506690   25.0291038  0.00   -0.0006928    0.0015960   -0.0022328
 H    2.7027497   -3.6375358   26.3672129  0.00    0.0025394    0.0002762   -0.0012793
 H    4.2757249   -4.4866921   26.5554188  0.00   -0.0021696   -0.0011807    0.0014610
 C    7.0292818   -2.5412803   27.4885438  0.00   -0.0037263   -0.0185737   -0.0067442
 H    7.5675373   -2.5300100   28.4599572  0.00    0.0022963   -0.0028605   -0.0040456
 H    6.9005006   -1.4859001   27.1683770  0.00    0.0026099   -0.0059473   -0.0051133
 H    6.0279104   -2.9644437   27.6543417  0.00   -0.0087885    0.0019391    0.0047977
 C    6.0957705   -6.7763822   20.5995270  0.00   -0.0009418    0.0013426   -0.0076170
 H    7.0894429   -6.7665228   21.0791950  0.00    0.0068610   -0.0035001    0.0048856
 H    6.1914818   -7.2562604   19.6090131  0.00    0.0028724    0.0017448    0.0019883
 H    5.7814224   -5.7293148   20.4453482  0.00   -0.0003589   -0.0020393   -0.0017809
 N    2.6663494   -6.3900044   22.5714092  0.00   -0.0545632    0.0061297   -0.0316531
Yb    6.2512089   -6.7742825   24.7195770  0.00    0.1548091    0.5411146   -0.3456100
 O    7.9616108   -7.4066842   23.7561595  0.00    0.0560837    0.2041806   -0.0633090
 H    8.5355374   -6.8279745   23.2011860  0.00   -0.2698518   -0.3495703    0.3111809
67
 Energy =   -2271.5199044060
 N    3.8511497   -6.3763221   24.6591906  0.00   -0.0477031    0.0158936    0.0497588
 N    4.9956779   -6.8992993   22.7875457  0.00   -0.0383172    0.0102346   -0.0690334
 N    6.7168083   -5.4727090   26.6605167  0.00    0.0394930    0.0014524    0.0882007
 N    7.7172621   -3.2949393   26.4754963  0.00   -0.0359433   -0.0161635    0.0188750
 N    7.0329515   -4.6170078   24.5975016  0.00    0.0595683    0.1986351    0.0672699
 C    2.8452766   -5.5430474   25.3100194  0.00    0.0186484   -0.0413198   -0.0263926
 H    2.0802673   -5.2421699   24.5690856  0.00    0.0166746   -0.0126103    0.0120450
 C    7.2418850   -3.5512514   23.6386473  0.00   -0.0125855    0.0348799    0.0248940
 H    7.5173463   -2.6201386   24.1706624  0.00   -0.0085274   -0.0381223   -0.0035778
 C    3.8258862   -6.5548169   23.3377333  0.00    0.0307369   -0.0340508   -0.0250228
 C    7.1585254   -4.4565809   25.9186077  0.00    0.0086839    0.0230108   -0.1166773
 C    7.9972238   -6.8542203   28.2173302  0.00   -0.0126650   -0.0656321   -0.0121160
 H    8.9091114   -6.7781686   27.6012290  0.00    0.0017536   -0.0063195   -0.0099124
 H    8.3012421   -6.9915063   29.2715086  0.00   -0.0027495   -0.0051640   -0.0132486
 H    7.4507954   -7.7658059   27.9009948  0.00    0.0128836    0.0175277    0.0228376
 C    7.1233439   -5.6134836   28.0470786  0.00   -0.0052308   -0.0094213   -0.0262284
 H    7.7481251   -4.7504580   28.3417502  0.00   -0.0034794   -0.0015900   -0.0059592
 C    2.6468768   -5.6276185   21.3525597  0.00   -0.0032945   -0.0057184    0.0205548
 H    2.3697379   -6.2392676   20.4692671  0.00    0.0011062   -0.0031799   -0.0033201
 H    1.9109887   -4.7989756   21.4274155  0.00    0.0040324   -0.0016830   -0.0007623
 H    3.6351749   -5.1826833   21.1709632  0.00    0.0112854    0.0052522   -0.0054593
 C    5.1135743   -7.5363073   21.4873208  0.00   -0.0259174   -0.0067488    0.0314335
 H    4.1284056   -7.5537671   20.9837776  0.00    0.0143164    0.0041013    0.0127198
 C    1.4129140   -6.9744911   22.9644123  0.00    0.0072270    0.0059509   -0.0173520
 H    0.6284451   -6.2164498   23.1674749  0.00   -0.0024512    0.0030126    0.0028921
 H    1.0310401   -7.6416908   22.1628842  0.00    0.0032235    0.0034771    0.0022345
 H    1.5510944   -7.5806778   23.8708318  0.00    0.0015937   -0.0027767    0.0068423
 C    5.5627520   -8.9906384   21.6402561  0.00   -0.0009729   -0.0237905    0.0090978
 H    4.8214125   -9.5727576   22.2180885  0.00    0.0109740    0.0103829    0.0011188
 H    5.6759669   -9.4726349   20.6511166  0.00   -0.0022136   -0.0076614    0.0151504
 H    6.5347989   -9.0333558   22.1643653  0.00   -0.0026226    0.0035752   -0.0032794
 C    2.1305796   -6.2815266   26.4405561  0.00    0.0146494   -0.0134614    0.0245035
 H    2.8217634   -6.4667968   27.2833848  0.00    0.0106819   -0.0224401   -0.0134200
 H    1.2867500   -5.6800108   26.8260438  0.00    0.0116119   -0.0109483    0.0055728
 H    1.7344628   -7.2559284   26.1075821  0.00    0.0001621   -0.0007182   -0.0052974
 C    9.0268782   -2.8257876   26.1167412  0.00   -0.0104056   -0.0125375   -0.0019149
 H    9.0123961   -1.8007230   25.6913134  0.00   -0.0055240   -0.0014735   -0.0005561
 H    9.6938375   -2.8067227   27.0052237  0.00   -0.0026923   -0.0040792   -0.0015317
 H    9.4773547   -3.5002898   25.3747453  0.00    0.0128353   -0.0038458   -0.0085995
 C    5.9206926   -5.6594572   28.9872628  0.00   -0.0356869   -0.0265033   -0.0121997
 H    5.2615053   -6.5116372   28.7364382  0.00    0.0076742    0.0083291    0.0011043
 H    6.2410850   -5.7720238   30.0386406  0.00    0.0008551   -0.0040015   -0.0020665
 H    5.3155080   -4.7399144   28.9122362  0.00    0.0013119   -0.0095764   -0.0023224
 C    8.3730726   -3.8990302   22.6705260  0.00   -0.0019707   -0.0011749   -0.0030435
 H    8.0977334   -4.7806332   22.0664952  0.00    0.0066710   -0.0104820   -0.0132779
 H    8.5736305   -3.0637111   21.9758569  0.00   -0.0021984   -0.0038383    0.0041481
 H    9.3080146   -4.1315204   23.2081513  0.00    0.0063362   -0.0049721    0.0046166
 C    5.9576013   -3.2591432   22.8648043  0.00   -0.0014508    0.0062765   -0.0146071
 H    5.1665885   -2.8877752   23.5368240  0.00    0.0021665   -0.0011764    0.0024377
 H    6.1316999   -2.4959540   22.0851327  0.00   -0.0017526   -0.0001090   -0.0022438
 H    5.5919625   -4.1820690   22.3823800  0.00   -0.0085079    0.0009542   -0.0085315
 C    3.4621915   -4.2512296   25.8478917  0.00    0.0108406   -0.0136960   -0.0058177
 H    3.8905015   -3.6505313   25.0290070  0.00   -0.0024320   -0.0008529    0.0005727
 H    2.7030223   -3.6376220   26.3670927  0.00   -0.0000859   -0.0013855   -0.0005670
 H    4.2755192   -4.4867550   26.5555768  0.00    0.0002345    0.0009489    0.0062721
 C    7.0286523   -2.5420893   27.4887139  0.00    0.0218192   -0.0037375   -0.0148526
 H    7.5676716   -2.5301487   28.4595943  0.00    0.0004862   -0.0036269   -0.0005830
 H    6.9006933   -1.4864624   27.1680835  0.00    0.0018918   -0.0112856   -0.0033867
 H    6.0274172   -2.9641954   27.6546152  0.00   -0.0145410   -0.0029793    0.0041479
 C    6.0960938   -6.7762807   20.5992816  0.00   -0.0016795   -0.0023382    0.0059099
 H    7.0897376   -6.7668658   21.0796744  0.00    0.0086917   -0.0003132   -0.0035822
 H    6.1915510   -7.2561504   19.6092651  0.00    0.0059941   -0.0012562   -0.0037900
 H    5.7813256   -5.7294425   20.4451591  0.00    0.0002703   -0.0003912   -0.0012173
 N    2.6653849   -6.3895521   22.5707941  0.00    0.0275200   -0.0195780    0.0440910
Yb    6.2762106   -6.7236499   24.6806692  0.00   -0.2228573    0.3438927   -0.0901318
 O    7.9465494   -7.3984851   23.7668333  0.00    0.1117783   -0.0890909   -0.0142651
 H    8.5222053   -6.8467614   23.2180630  0.00   -0.0003836   -0.1327177    0.0690807
67
 Energy =   -2271.5209722490
 N    3.8493319   -6.3777455   24.6627264  0.00    0.0197258   -0.0240277   -0.0756284
 N    4.9947835   -6.8998510   22.7848025  0.00   -0.0336406    0.0386557   -0.0441242
 N    6.7193549   -5.4742422   26.6645862  0.00    0.0298794    0.0912375   -0.1321946
 N    7.7153204   -3.2963869   26.4761134  0.00    0.0338994    0.0091330   -0.0138325
 N    7.0337362   -4.6069878   24.6001820  0.00    0.0464273    0.1613709   -0.1029023
 C    2.8465581   -5.5457160   25.3091458  0.00   -0.0156222    0.0017144    0.0264771
 H    2.0814630   -5.2431236   24.5698114  0.00    0.0078880   -0.0139065    0.0043864
 C    7.2410890   -3.5500733   23.6391133  0.00    0.0119408    0.0642646   -0.0257902
 H    7.5166460   -2.6231364   24.1707211  0.00    0.0054129    0.0238680    0.0057458
 C    3.8271500   -6.5580241   23.3382298  0.00   -0.0213858   -0.0026611    0.0496606
 C    7.1583258   -4.4567515   25.9147265  0.00    0.0066160    0.0184384    0.2139073
 C    7.9966702   -6.8572010   28.2160096  0.00    0.0192604    0.0018247    0.0083290
 H    8.9096237   -6.7788465   27.6002335  0.00   -0.0123139   -0.0135696   -0.0048071
 H    8.3006768   -6.9925425   29.2700519  0.00    0.0013948   -0.0048617   -0.0061317
 H    7.4512562   -7.7658352   27.9032527  0.00   -0.0134084   -0.0260877   -0.0019862
 C    7.1230366   -5.6143248   28.0461117  0.00    0.0200716   -0.0212486    0.0314058
 H    7.7479074   -4.7507233   28.3411827  0.00   -0.0052397   -0.0102788    0.0001163
 C    2.6469870   -5.6278882   21.3534542  0.00    0.0213106   -0.0168028    0.0219348
 H    2.3698292   -6.2394957   20.4691573  0.00    0.0037992    0.0000184    0.0100326
 H    1.9113080   -4.7992051   21.4275193  0.00    0.0024286   -0.0035410    0.0058451
 H    3.6358375   -5.1823317   21.1705452  0.00   -0.0020837   -0.0009929   -0.0017167
 C    5.1127767   -7.5368300   21.4888620  0.00    0.0038537   -0.0231657   -0.0233954
 H    4.1292372   -7.5533812   20.9848531  0.00   -0.0031042   -0.0002704    0.0015275
 C    1.4133145   -6.9741870   22.9637871  0.00    0.0085957   -0.0055515    0.0239219
 H    0.6284325   -6.2163084   23.1676413  0.00    0.0043289    0.0020554   -0.0005227
 H    1.0314673   -7.6413345   22.1630102  0.00    0.0036547   -0.0000613   -0.0060352
 H    1.5511622   -7.5808867   23.8713426  0.00   -0.0043788    0.0053153   -0.0082657
 C    5.5627410   -8.9919267   21.6414346  0.00    0.0029634    0.0015460    0.0058964
 H    4.8211108   -9.5728127   22.2185737  0.00    0.0087726    0.0020168    0.0109010
 H    5.6757396   -9.4732386   20.6526385  0.00   -0.0034570   -0.0101806    0.0055184
 H    6.5355782   -9.0325975   22.1639751  0.00   -0.0067092   -0.0012538    0.0031629
 C    2.1317414   -6.2827720   26.4420691  0.00    0.0018063   -0.0093634   -0.0072035
 H    2.8235094   -6.4688646   27.2828537  0.00    0.0175579   -0.0251251   -0.0016298
 H    1.2876357   -5.6809534   26.8264500  0.00    0.0143997   -0.0096002    0.0087825
 H    1.7342354   -7.2561265   26.1069569  0.00    0.0033851   -0.0005248    0.0009348
 C    9.0265904   -2.8265460   26.1163462  0.00   -0.0278826   -0.0118817    0.0047559
 H    9.0119345   -1.8008855   25.6913512  0.00   -0.0066837   -0.0071468    0.0010560
 H    9.6935182   -2.8070283   27.0050609  0.00   -0.0067439   -0.0058999   -0.0043522
 H    9.4783393   -3.5005003   25.3742216  0.00    0.0085491   -0.0029305   -0.0049074
 C    5.9188983   -5.6610633   28.9864905  0.00    0.0089735    0.0015274    0.0059153
 H    5.2614005   -6.5118023   28.7363352  0.00   -0.0126676   -0.0170979   -0.0073179
 H    6.2410679   -5.7724028   30.0383776  0.00   -0.0052666   -0.0051264   -0.0148815
 H    5.3154777   -4.7406175   28.9120018  0.00   -0.0042055   -0.0075770   -0.0036537
 C    8.3730933   -3.8993581   22.6703464  0.00   -0.0058895   -0.0077311    0.0123905
 H    8.0982879   -4.7812648   22.0658645  0.00    0.0067367   -0.0055620   -0.0099768
 H    8.5733633   -3.0639196   21.9763188  0.00   -0.0014114   -0.0011441    0.0013493
 H    9.3082802   -4.1319482   23.2083635  0.00    0.0001354   -0.0029768    0.0009517
 C    5.9573784   -3.2588827   22.8641002  0.00   -0.0095776    0.0011315    0.0041109
 H    5.1666265   -2.8877349   23.5370177  0.00    0.0031573   -0.0015818   -0.0035582
 H    6.1316243   -2.4961598   22.0852117  0.00   -0.0003321    0.0065432   -0.0105364
 H    5.5914999   -4.1819400   22.3817614  0.00   -0.0074191    0.0035528   -0.0098418
 C    3.4628440   -4.2520360   25.8475906  0.00   -0.0054673   -0.0154400   -0.0020125
 H    3.8903674   -3.6505219   25.0290171  0.00   -0.0009016   -0.0001880   -0.0025335
 H    2.7031469   -3.6377539   26.3670148  0.00    0.0072899   -0.0109550   -0.0077488
 H    4.2754482   -4.4867251   26.5559940  0.00    0.0042418   -0.0005235    0.0084308
 C    7.0295248   -2.5425054   27.4881027  0.00   -0.0253753   -0.0170019    0.0085850
 H    7.5677502   -2.5303834   28.4594085  0.00    0.0028058   -0.0047010   -0.0017248
 H    6.9008761   -1.4873183   27.1678005  0.00    0.0037016   -0.0036331   -0.0074749
 H    6.0264677   -2.9642374   27.6549364  0.00    0.0089875    0.0069641    0.0022460
 C    6.0962092   -6.7763708   20.5995697  0.00   -0.0076069   -0.0117491    0.0094295
 H    7.0902915   -6.7670372   21.0796976  0.00    0.0057535   -0.0008116   -0.0051561
 H    6.1918817   -7.2561831   19.6091852  0.00    0.0046790   -0.0000866    0.0024252
 H    5.7812927   -5.7295144   20.4450125  0.00    0.0003075   -0.0014648   -0.0004602
 N    2.6670726   -6.3904402   22.5732701  0.00   -0.0066373   -0.0016877   -0.0095734
Yb    6.2765756   -6.6829410   24.6578671  0.00   -0.2660983    0.1412116    0.0306183
 O    7.9430643   -7.4013500   23.7731605  0.00    0.0142117   -0.1848606    0.0717749
 H    8.5181375   -6.8600930   23.2273641  0.00    0.1338429   -0.0267545   -0.0491104
67
 Energy =   -2271.5216877890
 N    3.8491881   -6.3805404   24.6616007  0.00   -0.0006841    0.0077576    0.0272224
 N    4.9925530   -6.8983958   22.7805882  0.00   -0.0384415    0.0561361   -0.0090887
 N    6.7229268   -5.4709311   26.6605502  0.00   -0.0190422   -0.0249267    0.0344017
 N    7.7156144   -3.2971720   26.4757637  0.00    0.0177715    0.0660230    0.0737341
 N    7.0363563   -4.5909336   24.5967395  0.00    0.0139619    0.0080625    0.1535257
 C    2.8467245   -5.5477157   25.3100225  0.00   -0.0055972    0.0046508    0.0158832
 H    2.0828585   -5.2446533   24.5706237  0.00   -0.0013706   -0.0133361    0.0002597
 C    7.2411301   -3.5457960   23.6378604  0.00    0.0295774    0.0988908   -0.0652214
 H    7.5163645   -2.6242952   24.1711250  0.00    0.0235062    0.1047984    0.0037805
 C    3.8267806   -6.5608545   23.3414733  0.00   -0.0358568   -0.0041950   -0.1063169
 C    7.1585061   -4.4559461   25.9234727  0.00    0.0652492    0.1508360   -0.1497954
 C    7.9973535   -6.8592087   28.2153097  0.00   -0.0013251    0.0105372   -0.0047529
 H    8.9094173   -6.7801555   27.5991525  0.00   -0.0082181   -0.0177227   -0.0080254
 H    8.3002545   -6.9937272   29.2684923  0.00    0.0096580   -0.0028417    0.0113940
 H    7.4508339   -7.7674693   27.9050474  0.00   -0.0118658   -0.0278484   -0.0103059
 C    7.1238845   -5.6161659   28.0471733  0.00    0.0009533   -0.0070236   -0.0168022
 H    7.7474591   -4.7515143   28.3407154  0.00   -0.0018313   -0.0127503    0.0079096
 C    2.6482628   -5.6289904   21.3552636  0.00    0.0090398   -0.0039967    0.0013953
 H    2.3701137   -6.2396831   20.4696376  0.00    0.0081683    0.0016350    0.0220233
 H    1.9117037   -4.7996026   21.4279442  0.00    0.0114466   -0.0148017    0.0101273
 H    3.6362402   -5.1821148   21.1701228  0.00   -0.0012811   -0.0053172    0.0039526
 C    5.1124848   -7.5385193   21.4887116  0.00    0.0058786   -0.0094519   -0.0382106
 H    4.1297215   -7.5530796   20.9858352  0.00   -0.0181739   -0.0092269   -0.0161850
 C    1.4140661   -6.9742705   22.9646656  0.00   -0.0068540    0.0009111    0.0011999
 H    0.6286824   -6.2161050   23.1677516  0.00    0.0087900   -0.0010365   -0.0004690
 H    1.0320378   -7.6410455   22.1627948  0.00    0.0068501    0.0041789    0.0022761
 H    1.5509832   -7.5807744   23.8713191  0.00   -0.0032421   -0.0043459    0.0045468
 C    5.5629184   -8.9928108   21.6427929  0.00    0.0023652    0.0054316   -0.0034625
 H    4.8211881   -9.5728719   22.2196216  0.00    0.0073659   -0.0029270    0.0178893
 H    5.6753669   -9.4742872   20.6542231  0.00   -0.0046544   -0.0107642    0.0017282
 H    6.5359830   -9.0319895   22.1638155  0.00   -0.0034066   -0.0027378    0.0126436
 C    2.1327961   -6.2843365   26.4428463  0.00    0.0068924   -0.0109720   -0.0062802
 H    2.8260113   -6.4719474   27.2824194  0.00    0.0116054   -0.0243713   -0.0033639
 H    1.2891341   -5.6822487   26.8272612  0.00    0.0149360   -0.0078899    0.0120384
 H    1.7342124   -7.2563295   26.1064853  0.00    0.0020445   -0.0075118    0.0018500
 C    9.0249564   -2.8277651   26.1162428  0.00    0.0184226   -0.0000310   -0.0115052
 H    9.0111975   -1.8014106   25.6914505  0.00   -0.0104211   -0.0155485    0.0046093
 H    9.6928866   -2.8075890   27.0046867  0.00   -0.0101538   -0.0068375   -0.0061512
 H    9.4795994   -3.5008135   25.3735542  0.00   -0.0047766    0.0039126    0.0057106
 C    5.9180702   -5.6621985   28.9861985  0.00    0.0146493   -0.0019572   -0.0170678
 H    5.2605376   -6.5129785   28.7358362  0.00   -0.0108110   -0.0156029   -0.0054692
 H    6.2407698   -5.7729942   30.0373514  0.00   -0.0039617   -0.0073342   -0.0074747
 H    5.3152192   -4.7415980   28.9116139  0.00   -0.0052894   -0.0051458   -0.0037446
 C    8.3728151   -3.9000712   22.6708787  0.00    0.0058181    0.0175504   -0.0154509
 H    8.0991111   -4.7820574   22.0648705  0.00    0.0027977    0.0014481    0.0015242
 H    8.5730586   -3.0641391   21.9767865  0.00    0.0040878   -0.0079715   -0.0005941
 H    9.3084772   -4.1324634   23.2085701  0.00   -0.0062723   -0.0020581    0.0027411
 C    5.9566664   -3.2586398   22.8638127  0.00   -0.0001779    0.0256915   -0.0206028
 H    5.1668144   -2.8877742   23.5369856  0.00   -0.0039442    0.0028912    0.0007538
 H    6.1315550   -2.4960025   22.0847419  0.00   -0.0100844    0.0055955   -0.0123644
 H    5.5907521   -4.1816415   22.3807368  0.00   -0.0017224    0.0052297   -0.0061783
 C    3.4630667   -4.2534979   25.8472531  0.00    0.0033909   -0.0096581    0.0000880
 H    3.8902207   -3.6505185   25.0288922  0.00   -0.0032364   -0.0074456    0.0010605
 H    2.7036624   -3.6384589   26.3665361  0.00    0.0075113   -0.0155470   -0.0088439
 H    4.2756133   -4.4867343   26.5567864  0.00   -0.0000505    0.0004435    0.0052227
 C    7.0287754   -2.5437546   27.4881471  0.00    0.0080850    0.0080110    0.0116694
 H    7.5679742   -2.5308169   28.4591487  0.00   -0.0016791   -0.0044053   -0.0019104
 H    6.9012319   -1.4882106   27.1671692  0.00    0.0036468   -0.0108648   -0.0048870
 H    6.0262075   -2.9638722   27.6553192  0.00   -0.0039724   -0.0018555    0.0024826
 C    6.0959361   -6.7770714   20.6003083  0.00    0.0019361   -0.0081479   -0.0045866
 H    7.0910367   -6.7672432   21.0794815  0.00   -0.0022900   -0.0028595   -0.0048827
 H    6.1923873   -7.2562141   19.6092840  0.00    0.0036068    0.0007565    0.0074390
 H    5.7812774   -5.7296615   20.4448668  0.00    0.0001457   -0.0101537    0.0029838
 N    2.6681328   -6.3911911   22.5747250  0.00   -0.0311087   -0.0075618    0.0015087
Yb    6.2648958   -6.6403569   24.6388356  0.00   -0.1362661   -0.0513284    0.0388551
 O    7.9391146   -7.4133759   23.7834319  0.00    0.0391688   -0.0520036    0.0044193
 H    8.5217728   -6.8725212   23.2325607  0.00    0.0308210   -0.1187492    0.0513815
67
 Energy =   -2271.5220612630
 N    3.8492446   -6.3809940   24.6615180  0.00   -0.0177240    0.0044327   -0.0140581
 N    4.9900724   -6.8953865   22.7787916  0.00   -0.0044705    0.0259898   -0.0589305
 N    6.7232816   -5.4700302   26.6596075  0.00    0.0058516    0.0433274   -0.0033607
 N    7.7169135   -3.2942828   26.4786438  0.00    0.0213285    0.0231123    0.0279091
 N    7.0380272   -4.5855313   24.6008425  0.00    0.0098552    0.0412440   -0.0170272
 C    2.8464372   -5.5479514   25.3111034  0.00    0.0053776   -0.0046197   -0.0073969
 H    2.0831507   -5.2456456   24.5708378  0.00   -0.0031495   -0.0114004    0.0025725