99
Energy = -2179.936547256
Ce    6.3240716   -6.5725270   24.4618496 
N     7.7534361  -10.5395374   25.6959152 
N     3.6475281   -6.3101170   24.1296621 
N     7.8137755   -8.6053419   24.3001390 
N     4.5245043   -7.8026602   22.7570041 
N     6.0524600   -8.8430846   25.7001502 
N     6.7150202   -5.0991064   27.3057458 
N     8.6089326   -3.7509204   27.4831246 
N     7.9618575   -4.7682836   25.4081270 
C     7.1923173   -9.3316900   25.2383666 
C     2.7469082   -5.2450294   24.4911112 
H     1.8473346   -5.2558477   23.8490318 
C     8.6472070   -3.7476049   24.6162571 
H     9.3314903   -3.1630895   25.2586132 
C     3.4279875   -7.1206453   23.0994201 
C     5.0917784   -9.6022552   26.4728384 
H     5.5223368   -9.9109735   27.4477437 
C     7.7829787   -4.5459334   26.6889099 
C     7.1182755   -7.0018729   28.8082575 
H     8.1457183   -7.1438488   28.4286099 
H     7.0908666   -7.3361824   29.8604423 
H     6.4450172   -7.6367174   28.2095441 
C     6.7033571   -5.5353031   28.6984788 
H     7.4564933   -4.9267263   29.2200394 
C     1.9832230   -6.8223233   21.1059783 
H     1.4672411   -7.5938747   20.5012279 
H     1.3650013   -5.8993135   21.0753838 
H     2.9445192   -6.5923785   20.6233090 
C     9.2383110   -8.7466914   24.0634363 
H     9.5453332   -9.8087106   24.0840789 
C     4.6054425   -8.6454507   21.5972226 
H     3.5992516   -8.8277556   21.1733235 
C     9.5735679   -8.2226908   22.6708764 
H     9.2961043   -7.1595365   22.5699487 
H    10.6526538   -8.3207743   22.4558429 
H     9.0133135   -8.7865882   21.9046082 
C     1.0088259   -7.5668915   23.2221623 
H     0.3157047   -6.7038293   23.3115435 
H     0.4487990   -8.3957750   22.7451951 
H     1.2858981   -7.8913871   24.2374916 
C     3.9012154   -8.7060687   26.7993844 
H     3.3587421   -8.4398263   25.8747666 
H     3.1964837   -9.2157261   27.4810606 
H     4.2385534   -7.7646398   27.2624839 
C     8.1155517  -11.5871464   24.7835873 
H     7.9353108  -11.2636559   23.7472600 
H     9.1815011  -11.8829608   24.8784365 
H     7.5030734  -12.4986623   24.9604861 
C     5.2272936   -9.9838067   21.9919529 
H     4.5799624  -10.5326207   22.6946320 
H     5.3699559  -10.6082751   21.0927334 
H     6.2039530   -9.8130964   22.4783733 
C    10.0571670   -8.0407266   25.1490513 
H     9.8432317   -8.4844898   26.1381464 
H    11.1433337   -8.1333778   24.9616159 
H     9.7990902   -6.9673408   25.1959881 
C     2.3353310   -5.3862153   25.9568474 
H     3.2389506   -5.3847420   26.5902352 
H     1.6869846   -4.5404315   26.2446994 
H     1.7798811   -6.3224211   26.1353598 
C    10.0362054   -3.9159674   27.4626997 
H    10.5619361   -3.0090406   27.0986748 
H    10.4196881   -4.1375766   28.4810006 
H    10.3042867   -4.7569650   26.8048830 
C     7.8200584  -10.8702333   27.0891854 
H     7.0631207  -11.6212787   27.4066283 
H     8.8192595  -11.2897678   27.3253955 
H     7.6888304   -9.9642358   27.7001205 
C     5.3416901   -5.2699835   29.3271375 
H     4.5618189   -5.8707100   28.8319514 
H     5.3587299   -5.5311686   30.3991432 
H     5.0645763   -4.2058984   29.2318700 
C     9.4779149   -4.3711253   23.5026947 
H     8.8227218   -4.9347480   22.8170777 
H     9.9951067   -3.5856483   22.9234267 
H    10.2440438   -5.0562215   23.9055441 
C     7.6257757   -2.7627544   24.0424886 
H     7.0446680   -2.2872856   24.8532887 
H     8.1305648   -1.9633700   23.4690558 
H     6.9287666   -3.2973043   23.3746031 
C     3.4820892   -3.9184069   24.2651947 
H     3.8248092   -3.8230319   23.2219553 
H     2.8035212   -3.0784078   24.4967039 
H     4.3639635   -3.8570970   24.9250326 
C     8.0980203   -2.6904074   28.3065081 
H     8.3216532   -2.8437254   29.3836753 
H     8.5399294   -1.7151381   28.0122707 
H     7.0059506   -2.6211583   28.1885723 
C     4.6015283  -10.8754387   25.7771425 
H     5.4305222  -11.5602349   25.5356435 
H     3.8847102  -11.4191336   26.4192004 
H     4.0882870  -10.6167168   24.8342296 
C     5.4803777   -7.9449053   20.5473983 
H     6.4932542   -7.7792226   20.9481809 
H     5.5404827   -8.5743998   19.6425990 
H     5.0783299   -6.9574153   20.2675488 
N     2.1926329   -7.2712237   22.4584263 
O     5.7737664   -5.6752938   26.5327353 
O     6.4126426   -5.6396976   22.9052929 
