67
Energy = -1661.770723017
Ce    5.0898416   -4.4680740   24.4651218 
N     2.9219588   -5.5512053   24.0397553 
N     4.7422266   -6.4814853   23.0675510 
N     6.7056319   -5.1114277   27.1728385 
N     9.0260186   -4.9097673   27.0149073 
N     7.5754263   -4.5146239   25.1426394 
C     1.5564326   -5.0745249   23.9310844 
H     0.9395702   -5.7952147   23.3629575 
C     8.5843953   -3.7445220   24.4227859 
H     9.6012167   -4.0227043   24.7537225 
C     3.4213170   -6.5094929   23.2600105 
C     7.7783903   -4.8401517   26.4009111 
C     6.0935383   -7.3276126   28.0348860 
H     6.6612291   -7.8207710   27.2270570 
H     6.1235630   -7.9776902   28.9262320 
H     5.0456286   -7.2246719   27.7091258 
C     6.6882336   -5.9590773   28.3600909 
H     7.7398936   -6.0977090   28.6507256 
C     2.7506851   -7.8877241   21.3104080 
H     3.0470791   -8.9514513   21.1971022 
H     1.7911063   -7.7504202   20.7696617 
H     3.5081285   -7.2617289   20.8167118 
C     5.5114043   -7.6603999   22.7260503 
H     4.8337907   -8.5088100   22.5158585 
C     1.5732642   -8.1493904   23.4286159 
H     0.5604028   -7.9562313   23.0175780 
H     1.7307956   -9.2483044   23.4198015 
H     1.5933423   -7.8119561   24.4755245 
C     6.3872512   -8.0799397   23.9101382 
H     5.7649250   -8.2968473   24.7962531 
H     6.9757384   -8.9851525   23.6732692 
H     7.0930683   -7.2716783   24.1785314 
C     0.9432873   -4.9210082   25.3209218 
H     1.5192844   -4.1906461   25.9185191 
H    -0.1002435   -4.5642479   25.2620741 
H     0.9536598   -5.8796232   25.8680816 
C    10.0833091   -5.7073184   26.4551441 
H    10.9644182   -5.0983550   26.1661463 
H    10.4293187   -6.4681908   27.1859864 
H     9.7198184   -6.2374076   25.5612361 
C     5.9354663   -5.2640800   29.4885736 
H     4.9005882   -5.0524126   29.1733023 
H     5.9083043   -5.9037201   30.3870359 
H     6.4136088   -4.3066435   29.7578577 
C     8.4919592   -4.0437501   22.9306215 
H     7.5091314   -3.7358801   22.5260587 
H     9.2647370   -3.4891368   22.3705785 
H     8.6305484   -5.1210183   22.7332940 
C     8.4075032   -2.2491977   24.6952539 
H     8.5081650   -2.0359463   25.7742183 
H     9.1702044   -1.6576480   24.1573053 
H     7.4071609   -1.9148715   24.3671009 
C     1.5063055   -3.7528632   23.1595940 
H     1.9169785   -3.8800735   22.1430288 
H     0.4673462   -3.3867063   23.0692191 
H     2.1081718   -2.9740802   23.6609779 
C     9.3339136   -4.1764262   28.2129577 
H     9.5830093   -4.8407420   29.0671569 
H    10.2029434   -3.5066738   28.0483446 
H     8.4742376   -3.5533068   28.5011894 
C     6.3688147   -7.4147209   21.4855329 
H     7.0722683   -6.5821265   21.6639148 
H     6.9580097   -8.3112564   21.2222779 
H     5.7480086   -7.1422648   20.6151564 
N     2.6103794   -7.4910861   22.6837744 
O     5.4925274   -4.8763065   26.6453406 
O     4.9829417   -2.8377004   23.7233867 
