55
Energy = -2006.872204888
N     4.0913754   -5.7794971   24.5321052 
N     7.8484191   -8.5110984   25.2360561 
N     4.4759349   -7.1928935   22.7912764 
N     5.9915527   -9.3379972   26.2561783 
C     7.3001129   -9.4402124   26.0212455 
C     3.3674778   -4.7597497   25.2516739 
H     3.0889956   -3.9158459   24.5851263 
C     3.7733579   -6.1786796   23.3000379 
C     5.2389628  -10.2744715   27.0539664 
H     5.8356731  -10.6384806   27.9168015 
C     9.2537739   -8.5036864   24.9076691 
H     9.6787701   -9.5282402   24.9263972 
C     4.2784970   -7.6845268   21.4491668 
H     3.2274364   -7.5502429   21.1196482 
C     9.4336536   -7.9813582   23.4836942 
H     9.0503412   -6.9464696   23.4001744 
H    10.4971127   -7.9720689   23.1854374 
H     8.8773182   -8.6091125   22.7657210 
C     2.6523389   -5.5409339   22.5006379 
H     2.9928183   -5.2733428   21.4877214 
H     1.8168374   -6.2536142   22.3857007 
H     2.2581312   -4.6333929   22.9778242 
C     4.0243787   -9.5578400   27.6407140 
H     3.3695475   -9.1767335   26.8341086 
H     3.4230408  -10.2326717   28.2755601 
H     4.3435188   -8.6970618   28.2538573 
C     4.5613667   -9.1849398   21.4191122 
H     3.8987700   -9.7206999   22.1209493 
H     4.4106204   -9.6065708   20.4091631 
H     5.6078348   -9.3855041   21.7177508 
C    10.0582902   -7.6532133   25.8954227 
H     9.9576508   -8.0340724   26.9268267 
H    11.1331738   -7.6391945   25.6380228 
H     9.6871729   -6.6121287   25.8883970 
C     2.0774122   -5.3042207   25.8728243 
H     2.3116098   -6.1343096   26.5643249 
H     1.5365549   -4.5240000   26.4388713 
H     1.3965771   -5.6966249   25.0975002 
C     8.1392890  -10.5709678   26.5849063 
H     7.5978581  -11.1591682   27.3382937 
H     8.4398295  -11.2580493   25.7742994 
H     9.0625654  -10.1885921   27.0488563 
C     4.2768125   -4.1765240   26.3301235 
H     5.1963602   -3.7630042   25.8799691 
H     3.7730175   -3.3694073   26.8908126 
H     4.5697146   -4.9599448   27.0543365 
C     4.8074557  -11.4987448   26.2418240 
H     5.6834445  -12.0441276   25.8483624 
H     4.2110061  -12.2024461   26.8507281 
H     4.1945005  -11.1827931   25.3778139 
C     5.1754233   -6.9531051   20.4451573 
H     6.2381282   -7.0870124   20.7192975 
H     5.0325825   -7.3353155   19.4178190 
H     4.9685591   -5.8685418   20.4381196 
Yb    5.7280602   -7.5113142   24.7715958 
