65
Energy = -1511.490765847
Ce    5.8880965   -7.3392764   24.9560351 
N     7.8944358  -10.8864738   26.1971631 
N     3.6287556   -6.3415372   24.5933416 
N     7.8016980   -8.9393970   24.8126564 
N     4.7845248   -7.1975265   22.8442386 
N     6.0094398   -9.4192045   26.1114987 
C     7.2460209   -9.7525910   25.7047779 
C     2.8338494   -5.2950174   25.2018165 
H     2.2560688   -4.7511781   24.4308834 
C     3.7133412   -6.5166968   23.2778391 
C     5.0555988  -10.3952216   26.6075377 
H     5.4875226  -10.9927457   27.4328797 
C     3.1193712   -5.3160257   21.1951137 
H     2.7781196   -5.8275721   20.2711235 
H     2.6729698   -4.2996922   21.1974867 
H     4.2124758   -5.2031178   21.1474525 
C     9.2312350   -8.8625400   24.5916245 
H     9.7567220   -9.6336785   25.1856598 
C     4.8193516   -7.8953998   21.5735797 
H     3.9300654   -7.6280345   20.9736270 
C     9.5619310   -9.0828125   23.1161054 
H     9.0779605   -8.3060826   22.4969778 
H    10.6507648   -9.0343796   22.9371895 
H     9.1954135  -10.0616050   22.7621027 
C     1.3444958   -6.1807814   22.6254479 
H     0.8203653   -5.2131146   22.7707650 
H     0.8663920   -6.6913207   21.7637013 
H     1.1805932   -6.8022446   23.5178478 
C     3.8503896   -9.6593397   27.1841816 
H     3.3488731   -9.0561094   26.4038219 
H     3.1109434  -10.3692913   27.5951257 
H     4.1614125   -8.9763449   27.9949550 
C     8.5834903  -11.8090690   25.3374890 
H     8.4383432  -11.5219724   24.2858725 
H     9.6732582  -11.8571524   25.5416412 
H     8.1750444  -12.8327721   25.4681882 
C     4.7662649   -9.4096827   21.7902930 
H     3.8556867   -9.6903101   22.3473986 
H     4.7642806   -9.9494386   20.8253792 
H     5.6397321   -9.7503222   22.3763752 
C     9.7639506   -7.5056260   25.0588321 
H     9.5461699   -7.3434393   26.1288834 
H    10.8572102   -7.4314673   24.9116427 
H     9.2919374   -6.6806364   24.4906872 
C     1.8519674   -5.8798677   26.2164148 
H     2.3988657   -6.4069479   27.0190575 
H     1.2386798   -5.0881680   26.6824748 
H     1.1726357   -6.6110751   25.7454316 
C     7.9047600  -11.2022837   27.5987812 
H     7.3540297  -12.1368369   27.8359946 
H     8.9490861  -11.3347433   27.9498488 
H     7.4602790  -10.3749779   28.1723910 
C     3.7436313   -4.2659361   25.8772017 
H     4.4472867   -3.8232322   25.1505967 
H     3.1555184   -3.4483544   26.3328546 
H     4.3417392   -4.7360253   26.6820460 
C     4.6264003  -11.3780782   25.5162466 
H     5.4984446  -11.9153653   25.1049062 
H     3.9180612  -12.1286717   25.9122999 
H     4.1359866  -10.8402241   24.6849448 
C     6.0650560   -7.5101865   20.7775212 
H     6.9786745   -7.7859111   21.3357334 
H     6.0926763   -8.0305660   19.8038204 
H     6.1028624   -6.4229828   20.5908355 
N     2.7529466   -6.0249101   22.3899286 
