82
 Energy =   -1744.5890540670
Ce    6.2329357   -6.9576556   24.9820598  0.00   -0.0855664   -0.0849114    0.1345046
 N    3.8625556   -6.3026137   24.6603152  0.00    0.4091153    0.8368141    0.2703422
 N    7.8435738   -8.8975679   24.8059197  0.00   -0.6108115    1.5443852   -3.9340684
 N    4.9938820   -6.9125769   22.7942465  0.00    0.7219660    0.3204054    0.0435376
 N    6.0041091   -9.1717330   26.0798953  0.00   -1.6945565   -0.2294266   -0.8596843
 N    6.7666762   -5.4610173   26.8934092  0.00    0.6339354   -2.6535917    0.7964160
 N    7.7710649   -4.9752115   24.9218471  0.00    1.1695339   -0.4832108   -0.0462941
 C    7.1668873   -9.6705275   25.6436427  0.00  -16.2426403   10.2568654  -16.8473734
 C    2.9361374   -5.3215789   25.2301518  0.00    2.3615971   -0.7295895    1.7797683
 H    2.2005587   -5.1741690   24.5996240  0.00   -2.2501029    0.5012548   -1.8115935
 C    8.1961363   -3.9946861   23.9231103  0.00   -0.7582815   -2.5724465   -0.9638121
 H    8.4144161   -3.1525038   24.3743916  0.00    0.6610090    2.5344887    1.2628065
 C    3.8211220   -6.5863294   23.3463953  0.00    8.6741404   -0.6533284    4.0529733
 C    4.8972663  -10.0511497   26.4868745  0.00   -0.4337720    1.9672288   -2.0071431
 H    5.2024249  -10.6339510   27.2133994  0.00    0.8270697   -1.8195111    2.2084883
 C    7.5635201   -4.6368665   26.1944585  0.00   -3.2930264   -4.3717388   -3.9044049
 C    7.5258532   -6.9617305   28.6682030  0.00   -1.2567614    3.0985946   -0.5694449
 H    8.3880870   -7.0357156   28.2525794  0.00    3.1481532   -0.2980758   -1.5156754
 H    7.6200770   -7.0528175   29.6191165  0.00    0.3868715   -0.4145564    3.5333272
 H    6.9495491   -7.6532047   28.3355667  0.00   -2.1228164   -2.5407544   -1.2293587
 C    6.9235589   -5.6012197   28.3465892  0.00   -1.8954513   -1.9574675   -1.3481516
 H    7.5329911   -4.9034294   28.6662525  0.00    1.7986517    2.0524804    1.0334780
 C    9.3041091   -9.0340774   24.6499994  0.00   -1.2317429    2.5750006   -1.4845224
 H    9.5952368   -9.8758393   25.0587627  0.00    1.0196361   -2.2754905    0.9475787
 C    5.0765609   -7.6875740   21.5494733  0.00    2.4732688    0.4529274    1.5079777
 H    4.1810861   -7.7592033   21.1577367  0.00   -2.6170665   -0.2562783   -1.2226412
 C    9.6480082   -9.0513957   23.1655784  0.00   -0.7918011    0.0135921    3.3701624
 H    9.3596678   -8.2308233   22.7604020  0.00   -1.0548965    2.9973470   -1.5279325
 H   10.5972714   -9.1458955   23.0580403  0.00    3.5051519   -0.3450915   -0.4296104
 H    9.2034442   -9.7905973   22.7430536  0.00   -1.6217551   -2.6651040   -1.5668514
 C    2.8082545   -6.9193216   22.7755331  0.00   -4.6042088   -1.3189179   -2.9328552
 H    2.7619880   -6.1178734   22.2483100  0.00   -0.7465718    2.7056573   -2.6948751
 H    2.1959734   -7.5692135   22.4238775  0.00   -1.1884615   -3.0708233   -1.6453325
 H    2.1936917   -6.6465310   23.4396516  0.00   -3.0699219    1.1326791    2.6514326
 C    3.7811951   -9.1647292   27.0001675  0.00    2.4753727   -2.0722060   -1.0719076
 H    3.4568074   -8.6119293   26.2851325  0.00   -1.1712080    2.0318272   -2.5890034
 H    3.0652220   -9.7108055   27.3323812  0.00   -2.6743955   -1.9669788    1.2487824
 H    4.1142272   -8.6081218   27.7082974  0.00    1.1782194    2.0547728    2.5887030
 C    5.6063463   -9.0921449   21.8437557  0.00   -1.2980493    3.2009757   -0.7227994
 H    4.9895879   -9.5536030   22.4170055  0.00   -2.2093533   -1.7191604    2.1101520
 H    5.7018696   -9.5773903   21.0206930  0.00    0.3549118   -1.8203542   -3.0104879
 H    6.4600297   -9.0281688   22.2781190  0.00    3.1294441    0.1987290    1.6165383
 C    9.9934140   -7.8709450   25.3508371  0.00   -1.5031950   -2.6857778   -1.5183366
 H    9.8516168   -7.9391616   26.2980113  0.00   -0.4851362   -0.1747265    3.4855476
 H   10.9349178   -7.8984507   25.1656007  0.00    3.4772761   -0.0754143   -0.6377564
 H    9.6281012   -7.0429995   25.0313012  0.00   -1.3269470    3.0573704   -1.1536282
 C    2.3649184   -5.8283959   26.5479041  0.00    1.2114888    1.1419910   -3.0435489
 H    3.0798179   -5.9742268   27.1717211  0.00    2.6037851   -0.5542760    2.2903860
 H    1.7563337   -5.1776072   26.9045318  0.00   -2.2471909    2.3786739    1.3650695
 H    1.8983004   -6.6542530   26.3976617  0.00   -1.6997200   -3.0127359   -0.4983002
 C    7.9444011   -9.8994786   26.2768153  0.00   19.8680789  -12.8707408    6.5337626
 H    7.4578181  -10.5619947   26.6087870  0.00   -3.1965075   -5.7884732    4.1607828
 H    8.6572427  -10.5723830   26.2139995  0.00    2.6243497   -0.9869775   -0.5904007
 H    7.8292301   -9.4822446   26.9234732  0.00   -0.8103600    7.7260928   11.8516138
 C    5.5814861   -5.4400060   29.0517393  0.00    3.0877287   -0.2890870   -1.5635895
 H    4.9786645   -6.1244255   28.7527218  0.00   -2.2355291   -2.5017031   -1.1030950
 H    5.7072560   -5.5159521   30.0003100  0.00    0.4025204   -0.2827899    3.5030587
 H    5.2136497   -4.5772582   28.8458462  0.00   -1.3991027    3.1330688   -0.7319849
 C    9.4334950   -4.5065967   23.1995111  0.00   -2.7456143    1.2497967    1.6659371
 H    9.2278147   -5.3343512   22.7599698  0.00   -0.7357794   -3.0579453   -1.6091318
 H    9.7134733   -3.8589661   22.5478761  0.00    1.0594701    2.3465334   -2.4093111
 H   10.1399572   -4.6473340   23.8340448  0.00    2.6036241   -0.5489537    2.2898458
 C    7.0648099   -3.7501914   22.9332622  0.00    2.5448058   -0.4646895    2.2591323
 H    6.3064239   -3.3875371   23.3972098  0.00   -2.8114875    1.3130076    1.6469314
 H    7.3558623   -3.1288312   22.2617408  0.00    1.0284648    2.2887739   -2.4891505
 H    6.8187695   -4.5793339   22.5170414  0.00   -0.9401922   -3.0316330   -1.5381647
 C    3.6744093   -3.9985063   25.4519744  0.00   -1.8045715   -2.9466618   -0.5586533
 H    3.9668554   -3.6498340   24.6066892  0.00    1.0975380    1.3015944   -3.0820889
 H    3.0834151   -3.3687415   25.8708655  0.00   -2.1509388    2.3854974    1.5407718
 H    4.4358275   -4.1479791   26.0171924  0.00    2.7997367   -0.5668296    2.0760396
 C    7.1743548   -3.4516446   26.5278540  0.00   -1.1809944    2.7704075    0.3919136
 H    8.1228751   -3.5734799   26.6118623  0.00    4.7113078    1.6837378    1.5543295
 H    6.9948665   -2.5828451   26.1603373  0.00   -0.4914101    2.7958509   -1.9918624
 H    6.7645245   -3.5237707   27.3928920  0.00   -1.3700292    0.2019748    2.9700988
 C    4.4034528  -10.9118472   25.3341270  0.00    1.1076223    1.8958390    2.6325907
 H    5.1225899  -11.4611834   25.0139352  0.00    2.6032966   -2.0418174   -1.2273097
 H    3.6842592  -11.4708359   25.6374195  0.00   -2.6527526   -2.1008282    1.0744734
 H    4.0915706  -10.3466316   24.6235716  0.00   -1.1229276    2.0593558   -2.6177015
 C    5.9926207   -6.9719178   20.5662143  0.00   -2.1190525   -1.6256638    2.1891812
 H    6.8759479   -6.9125005   20.9375385  0.00    3.2394959    0.2416508    1.3470277
 H    6.0243739   -7.4644090   19.7425985  0.00    0.1543142   -1.7834250   -3.0509155
 H    5.6553510   -6.0893558   20.3988267  0.00   -1.2020546    3.2622990   -0.6331295
82
 Energy =   -1744.8547002350
Ce    6.2328007   -6.9577896   24.9822721  0.00   -0.0747112   -0.0406377    0.1416087
 N    3.8632015   -6.3012925   24.6607421  0.00    0.4948318    0.8175448    0.3628462
 N    7.8426094   -8.8951299   24.7997091  0.00   -0.6734871    1.7002812   -3.7788649
 N    4.9950216   -6.9120710   22.7943153  0.00    0.8990393    0.2905001    0.0418423
 N    6.0014340   -9.1720951   26.0785381  0.00   -1.8834335   -0.0575549   -0.8347240
 N    6.7676771   -5.4652064   26.8946664  0.00    0.6080329   -2.6244912    0.6911511
 N    7.7729113   -4.9759744   24.9217740  0.00    1.1290328   -0.5647975   -0.1287037
 C    7.1412460   -9.6543357   25.6170467  0.00   -9.2533229    7.7440926  -11.1241892
 C    2.9398657   -5.3227305   25.2329616  0.00    2.0757927   -0.6812622    1.4901744
 H    2.1970067   -5.1733775   24.5967644  0.00   -2.0330047    0.4557131   -1.6286774
 C    8.1949393   -3.9987471   23.9215887  0.00   -0.6764064   -2.2558532   -0.7550309
 H    8.4154598   -3.1485029   24.3763850  0.00    0.5991215    2.2960895    1.1403453
 C    3.8348153   -6.5873606   23.3527936  0.00    7.3264027   -0.9526504    3.3704790
 C    4.8965815  -10.0480441   26.4837060  0.00   -0.3148235    1.7296442   -1.7154414
 H    5.2037306  -10.6368234   27.2168858  0.00    0.7516632   -1.6515749    1.9996112
 C    7.5583219   -4.6437680   26.1882948  0.00   -3.3154505   -3.8755289   -3.6218278
 C    7.5238695   -6.9568391   28.6673040  0.00   -1.1486387    2.7995644   -0.5185441
 H    8.3930570   -7.0361863   28.2501865  0.00    2.9219810   -0.2822231   -1.4063417
 H    7.6206881   -7.0534721   29.6246942  0.00    0.3619554   -0.3907897    3.2883454
 H    6.9461982   -7.6572157   28.3336259  0.00   -1.9573519   -2.3638906   -1.1337979
 C    6.9205670   -5.6043099   28.3444609  0.00   -1.6346166   -1.6724518   -1.2370065
 H    7.5358309   -4.9001894   28.6678839  0.00    1.6221271    1.8529556    0.9360097
 C    9.3021645   -9.0300125   24.6476556  0.00   -1.1304778    2.1860413   -1.3179393
 H    9.5968463   -9.8794317   25.0602583  0.00    0.9337640   -2.0127964    0.8057288
 C    5.0804651   -7.6868589   21.5518539  0.00    2.1048856    0.4436340    1.3772373
 H    4.1769544   -7.7596077   21.1558067  0.00   -2.3637479   -0.2316791   -1.1045565
 C    9.6467580   -9.0513744   23.1708984  0.00   -0.7289368    0.0343839    3.0391824
 H    9.3580024   -8.2260917   22.7579898  0.00   -0.9735805    2.7784326   -1.4354349
 H   10.6028046   -9.1464404   23.0573618  0.00    3.2504310   -0.3200316   -0.3978010
 H    9.2008838   -9.7948046   22.7405799  0.00   -1.5039162   -2.4734518   -1.4596930
 C    2.8009860   -6.9214034   22.7709034  0.00   -3.6276101   -0.7448808   -2.2733799
 H    2.7608094   -6.1136019   22.2440559  0.00   -0.7237145    2.5726076   -2.5879205
 H    2.1940971   -7.5740610   22.4212803  0.00   -1.2375583   -3.1236754   -1.6669040
 H    2.1888454   -6.6447427   23.4438375  0.00   -2.9095155    1.0745032    2.5135184
 C    3.7851028   -9.1680004   26.9984755  0.00    2.2349482   -1.8653958   -0.9779597
 H    3.4549585   -8.6087217   26.2810456  0.00   -1.0939929    1.8906806   -2.3929465
 H    3.0610001   -9.7139105   27.3343527  0.00   -2.4865377   -1.8260920    1.1629968
 H    4.1160873   -8.6048780   27.7123841  0.00    1.0883756    1.9101991    2.4047143
 C    5.6042969   -9.0870916   21.8426146  0.00   -1.1672139    2.9166369   -0.6398695
 H    4.9860999   -9.5563169   22.4203367  0.00   -2.0485690   -1.6009153    1.9589629
 H    5.7024296   -9.5802639   21.0159405  0.00    0.3293089   -1.6912272   -2.7933051
 H    6.4649697   -9.0278550   22.2806709  0.00    2.9026150    0.1691666    1.4981881
 C    9.9910410   -7.8751851   25.3484399  0.00   -1.3924322   -2.4176658   -1.3836662
 H    9.8508510   -7.9394376   26.3035135  0.00   -0.4495245   -0.1591834    3.2370283
 H   10.9404071   -7.8985699   25.1645935  0.00    3.2284085   -0.0724160   -0.5927202
 H    9.6260065   -7.0381732   25.0294798  0.00   -1.2193765    2.8444621   -1.0608452
 C    2.3668311   -5.8265930   26.5430997  0.00    1.1155656    1.0249212   -2.7523656
 H    3.0839286   -5.9751017   27.1753370  0.00    2.4045176   -0.5187755    2.1339942
 H    1.7527865   -5.1738519   26.9066870  0.00   -2.0851334    2.2072418    1.2682409
 H    1.8956173   -6.6590088   26.3968753  0.00   -1.5805657   -2.7993657   -0.4574806
 C    7.9757656   -9.9197969   26.2871295  0.00   12.2201661   -9.2891927    3.3371259
 H    7.4527719  -10.5711326   26.6153552  0.00   -3.0165751   -5.2969940    3.8300848
 H    8.6613855  -10.5739412   26.2130672  0.00    3.2713006   -1.7159188   -0.6370016
 H    7.8279508   -9.4700480   26.9421824  0.00   -0.7088791    6.5827416    9.5448300
 C    5.5863609   -5.4404624   29.0492710  0.00    2.7882315   -0.2702520   -1.4317708
 H    4.9751357   -6.1283747   28.7509805  0.00   -2.0837843   -2.3145072   -1.0148931
 H    5.7078918   -5.5163986   30.0058400  0.00    0.3716089   -0.2628988    3.2519294
 H    5.2114414   -4.5723122   28.8446907  0.00   -1.3064055    2.9087292   -0.6768462
 C    9.4291607   -4.5046239   23.2021408  0.00   -2.4934775    1.1153738    1.5095663
 H    9.2266532   -5.3391787   22.7574293  0.00   -0.6686851   -2.8368988   -1.4964104
 H    9.7151459   -3.8552619   22.5440725  0.00    0.9850618    2.1786693   -2.2388396
 H   10.1440674   -4.6482007   23.8376594  0.00    2.4208745   -0.5126302    2.1224881
 C    7.0688273   -3.7509250   22.9368285  0.00    2.2991924   -0.4392908    2.0482844
 H    6.3019857   -3.3854643   23.3998097  0.00   -2.6153731    1.2196212    1.5249948
 H    7.3574860   -3.1252180   22.2578113  0.00    0.9528489    2.1253015   -2.3118379
 H    6.8172853   -4.5841197   22.5146131  0.00   -0.8826397   -2.8049521   -1.4347363
 C    3.6715607   -4.0031579   25.4510926  0.00   -1.6255227   -2.6834529   -0.4991196
 H    3.9685882   -3.6477791   24.6018239  0.00    1.0211971    1.2117156   -2.8596793
 H    3.0800198   -3.3649756   25.8732980  0.00   -1.9966367    2.2200558    1.4309509
 H    4.4402475   -4.1488738   26.0204698  0.00    2.5968570   -0.5124436    1.9234279
 C    7.1724908   -3.4472712   26.5284726  0.00   -0.8241735    2.3799726    0.4203285
 H    8.1303129   -3.5708219   26.6143160  0.00    4.3497762    1.6453169    1.4974868
 H    6.9940911   -2.5784315   26.1571929  0.00   -0.4915425    2.7546772   -1.9706249
 H    6.7623621   -3.5234519   27.3975807  0.00   -1.3113980    0.2045193    2.8422101
 C    4.4052012  -10.9088543   25.3382829  0.00    1.0119428    1.7331389    2.3760373
 H    5.1266993  -11.4644066   25.0119977  0.00    2.4127681   -1.8990629   -1.1431267
 H    3.6800713  -11.4741522   25.6391157  0.00   -2.4624794   -1.9502438    0.9969600
 H    4.0897977  -10.3433805   24.6194393  0.00   -1.0467403    1.9003781   -2.4383785
 C    5.9892752   -6.9744841   20.5696702  0.00   -1.9095476   -1.4658390    1.9989268
 H    6.8810617   -6.9121190   20.9396649  0.00    3.0117171    0.2319539    1.2378559
 H    6.0246172   -7.4672243   19.7377822  0.00    0.1441835   -1.6549852   -2.8323762
 H    5.6534532   -6.0842057   20.3978272  0.00   -1.1111729    3.0292531   -0.5910853
82
 Energy =   -1745.1715648800
Ce    6.2325484   -6.9577976   24.9828436  0.00   -0.0767430   -0.0207593    0.1604458
 N    3.8654042   -6.2981955   24.6624574  0.00    0.6425677    0.7518746    0.4740777
 N    7.8397935   -8.8880291   24.7856179  0.00   -0.6393329    1.7636181   -3.5223907
 N    4.9990951   -6.9110482   22.7944716  0.00    1.1739676    0.2313609    0.0317047
 N    5.9935136   -9.1717384   26.0753940  0.00   -1.7434904    0.1333372   -0.8914336
 N    6.7699418   -5.4752581   26.8969845  0.00    0.5611648   -2.5353740    0.4768812
 N    7.7771414   -4.9784338   24.9209983  0.00    1.0446181   -0.7043638   -0.2772097
 C    7.1290181   -9.6328564   25.5933159  0.00   -5.7872445    6.1646999   -7.9868383
 C    2.9469304   -5.3252019   25.2377490  0.00    1.5680528   -0.5976248    0.9641288
 H    2.1898765   -5.1717682   24.5910830  0.00   -1.6489478    0.3729766   -1.3080307
 C    8.1925997   -4.0064043   23.9193723  0.00   -0.5272533   -1.6876644   -0.3757198
 H    8.4175686   -3.1404270   24.3803821  0.00    0.4884208    1.8700650    0.9259405
 C    3.8586060   -6.5920533   23.3635283  0.00    5.3950633   -1.2701070    2.4656783
 C    4.8957649  -10.0421557   26.4780551  0.00   -0.0672102    1.3050038   -1.2345261
 H    5.2063834  -10.6426445   27.2239149  0.00    0.6158663   -1.3577874    1.6382016
 C    7.5454250   -4.6570836   26.1752404  0.00   -3.3048445   -3.0211476   -3.0743851
 C    7.5197924   -6.9470205   28.6654700  0.00   -0.9104495    2.1841025   -0.4009154
 H    8.4035954   -7.0372247   28.2451159  0.00    2.4747333   -0.2412683   -1.1910812
 H    7.6220047   -7.0549036   29.6365853  0.00    0.3105163   -0.3368799    2.8003607
 H    6.9391867   -7.6657617   28.3295631  0.00   -1.6442511   -2.0109546   -0.9515691
 C    6.9151254   -5.6098173   28.3400515  0.00   -1.1618515   -1.1578290   -1.0422489
 H    7.5415100   -4.8936962   28.6711751  0.00    1.3102507    1.5004106    0.7599901
 C    9.2981338   -9.0228698   24.6431196  0.00   -0.9898239    1.5842729   -1.0364968
 H    9.6001679   -9.8863307   25.0628956  0.00    0.7692875   -1.5802465    0.5831758
 C    5.0873632   -7.6851743   21.5567395  0.00    1.4480641    0.4263932    1.1442359
 H    4.1686664   -7.7604204   21.1519333  0.00   -1.9153290   -0.1847235   -0.8913530
 C    9.6441505   -9.0511717   23.1815357  0.00   -0.5746454    0.0520045    2.3604597
 H    9.3545110   -8.2160848   22.7527497  0.00   -0.8178000    2.3520697   -1.2439603
 H   10.6145160   -9.1475940   23.0559299  0.00    2.7478939   -0.2700866   -0.3340570
 H    9.1954644   -9.8037245   22.7352954  0.00   -1.2738866   -2.0929636   -1.2402082
 C    2.7902484   -6.9223489   22.7643348  0.00   -2.5486413   -0.0373878   -1.4301413
 H    2.7580874   -6.1041009   22.2344087  0.00   -0.6773482    2.2970398   -2.3742687
 H    2.1891453   -7.5863188   22.4147617  0.00   -1.1487184   -3.0150059   -1.5984809
 H    2.1781340   -6.6407828   23.4530938  0.00   -2.5873706    0.9461827    2.2153332
 C    3.7929358   -9.1745172   26.9950103  0.00    1.7362614   -1.4475681   -0.7675053
 H    3.4509881   -8.6018854   26.2724524  0.00   -0.9354800    1.6097817   -2.0147551
 H    3.0520173   -9.7204974   27.3385616  0.00   -2.1109741   -1.5517210    0.9893608
 H    4.1199939   -8.5979779   27.7210639  0.00    0.9173061    1.6213953    2.0387551
 C    5.6002233   -9.0767703   21.8404196  0.00   -0.9083340    2.3192653   -0.4810263
 H    4.9787189   -9.5621093   22.4274030  0.00   -1.7314361   -1.3597243    1.6600379
 H    5.7036161   -9.5863690   21.0058699  0.00    0.2751472   -1.4273755   -2.3642366
 H    6.4754299   -9.0273004   22.2860658  0.00    2.4562177    0.1198422    1.2682567
 C    9.9860294   -7.8836317   25.3435421  0.00   -1.1267981   -1.8830512   -1.0986785
 H    9.8492328   -7.9400013   26.3151938  0.00   -0.3804067   -0.1305756    2.7455825
 H   10.9520536   -7.8988404   25.1624523  0.00    2.7306288   -0.0668045   -0.5008132
 H    9.6216535   -7.0278908   25.0256894  0.00   -1.0158477    2.4228196   -0.8845034
 C    2.3708224   -5.8230235   26.5334375  0.00    0.9007269    0.7861507   -2.1553784
 H    3.0925565   -5.9769880   27.1830631  0.00    2.0205073   -0.4470112    1.8212499
 H    1.7452695   -5.1658933   26.9112660  0.00   -1.7613253    1.8697588    1.0697339
 H    1.8899067   -6.6691153   26.3952443  0.00   -1.3419547   -2.3754397   -0.3828318
 C    7.9972472   -9.9436496   26.2892605  0.00    7.3785204   -6.4325044    3.5671095
 H    7.4417124  -10.5899614   26.6290523  0.00   -2.6177857   -4.5194245    3.3381679
 H    8.6762171  -10.5830344   26.2104462  0.00    3.5970427   -2.1136001   -0.6678330
 H    7.8255515   -9.4484445   26.9713197  0.00   -0.1873772    4.7007566    6.5541409
 C    5.5961352   -5.4414441   29.0441783  0.00    2.1753800   -0.2219445   -1.1497135
 H    4.9675893   -6.1366947   28.7473531  0.00   -1.7799331   -1.9507960   -0.8476783
 H    5.7092258   -5.5173484   30.0175699  0.00    0.3170913   -0.2236216    2.7502061
 H    5.2067025   -4.5618195   28.8422592  0.00   -1.1168244    2.4649323   -0.5712623
 C    9.4203676   -4.5007638   23.2074513  0.00   -1.9655029    0.8524612    1.1890657
 H    9.2242933   -5.3494051   22.7520218  0.00   -0.5459410   -2.4030490   -1.2729436
 H    9.7187047   -3.8474024   22.5359884  0.00    0.8314731    1.8475922   -1.8967138
 H   10.1528139   -4.6500612   23.8453031  0.00    2.0543471   -0.4382447    1.7953664
 C    7.0768913   -3.7525383   22.9440391  0.00    1.7937409   -0.3718789    1.6150397
 H    6.2925325   -3.3810624   23.4052964  0.00   -2.2226292    1.0335666    1.2884006
 H    7.3609162   -3.1175499   22.2494683  0.00    0.8085048    1.7998287   -1.9547996
 H    6.8140659   -4.5942033   22.5094131  0.00   -0.7640858   -2.3648533   -1.2269722
 C    3.6658783   -4.0126482   25.4493635  0.00   -1.2680155   -2.1275723   -0.3846402
 H    3.9722805   -3.6433957   24.5915147  0.00    0.8668224    1.0275089   -2.4206264
 H    3.0728190   -3.3569473   25.8784623  0.00   -1.6939771    1.8852081    1.2115760
 H    4.4496071   -4.1506722   26.0273942  0.00    2.1972560   -0.4151203    1.6252104
 C    7.1705068   -3.4393833   26.5301939  0.00   -0.2562143    1.8036728    0.4854821
 H    8.1459170   -3.5645888   26.6199154  0.00    3.7008611    1.5710424    1.3883822
 H    6.9921904   -2.5679173   26.1496435  0.00   -0.4767588    2.5672235   -1.8797858
 H    6.7574890   -3.5226526   27.4081414  0.00   -1.1790515    0.2161063    2.5480837
 C    4.4087919  -10.9026999   25.3466071  0.00    0.7985067    1.3747225    1.8581352
 H    5.1353877  -11.4712696   25.0078606  0.00    2.0411082   -1.6129049   -0.9735312
 H    3.6711892  -11.4811866   25.6427102  0.00   -2.0839144   -1.6526879    0.8451440
 H    4.0860062  -10.3365668   24.6106139  0.00   -0.8917753    1.5966957   -2.0783665
 C    5.9825960   -6.9796140   20.5767594  0.00   -1.4871868   -1.1382086    1.5932541
 H    6.8919407   -6.9112546   20.9440840  0.00    2.5612703    0.2084201    1.0312903
 H    6.0251399   -7.4731915   19.7275651  0.00    0.1198765   -1.4033483   -2.3940211
 H    5.6494618   -6.0732759   20.3956831  0.00   -0.9360246    2.5670188   -0.5036902
82
 Energy =   -1745.4860422410
Ce    6.2320198   -6.9577960   24.9840526  0.00   -0.0850557    0.0061452    0.1742087
 N    3.8707137   -6.2934995   24.6664038  0.00    0.7773484    0.6227543    0.4655249
 N    7.8356297   -8.8755789   24.7633195  0.00   -0.5255364    1.7053646   -3.1287847
 N    5.0088368   -6.9098549   22.7946250  0.00    1.3111742    0.1686824    0.0448746
 N    5.9824320   -9.1695835   26.0690031  0.00   -1.5603845    0.3632123   -0.9737241
 N    6.7734560   -5.4919292   26.8988651  0.00    0.5076430   -2.3566709    0.2003540
 N    7.7837034   -4.9841101   24.9181654  0.00    0.9042385   -0.8113934   -0.3783851
 C    7.1142074   -9.6018059   25.5609384  0.00   -2.3406380    4.1697518   -4.7124943
 C    2.9543478   -5.3287344   25.2409507  0.00    1.0749126   -0.5070870    0.4674534
 H    2.1811161   -5.1697667   24.5842393  0.00   -1.2720615    0.2865844   -1.0026445
 C    8.1899615   -4.0142509   23.9192317  0.00   -0.3724160   -1.1374116   -0.0331222
 H    8.4201766   -3.1304302   24.3853029  0.00    0.3782339    1.4484648    0.7258149
 C    3.8828320   -6.6027727   23.3744346  0.00    3.8603372   -1.3554839    1.8415722
 C    4.8968827  -10.0359940   26.4727447  0.00    0.1513875    0.8836873   -0.7699630
 H    5.2097104  -10.6499976   27.2327455  0.00    0.4938208   -1.0620319    1.2800342
 C    7.5230148   -4.6721584   26.1578213  0.00   -3.1774503   -2.2070286   -2.4624282
 C    7.5151129   -6.9360729   28.6634873  0.00   -0.6048204    1.4534183   -0.2463941
 H    8.4175772   -7.0386007   28.2383867  0.00    1.9487424   -0.1855375   -0.9410554
 H    7.6237916   -7.0568465   29.6525200  0.00    0.2456686   -0.2622127    2.2252715
 H    6.9300058   -7.6771851   28.3242547  0.00   -1.2908501   -1.5917332   -0.7455341
 C    6.9102407   -5.6144032   28.3342091  0.00   -0.7011715   -0.6725174   -0.8313619
 H    7.5484248   -4.8857420   28.6752163  0.00    1.0075200    1.1604898    0.5772470
 C    9.2923170   -9.0159593   24.6378740  0.00   -0.8517726    1.0035906   -0.7469630
 H    9.6043553   -9.8942983   25.0654330  0.00    0.5783559   -1.1561152    0.3705890
 C    5.0930168   -7.6823907   21.5630321  0.00    0.8399917    0.3953842    0.8936556
 H    4.1585081   -7.7613838   21.1472356  0.00   -1.4793446   -0.1306125   -0.6722008
 C    9.6412197   -9.0506971   23.1932753  0.00   -0.3767695    0.0533627    1.5332209
 H    9.3499440   -8.2028048   22.7455084  0.00   -0.6422853    1.8623224   -1.0084066
 H   10.6300036   -9.1491078   23.0540637  0.00    2.1654114   -0.2129926   -0.2501396
 H    9.1882709   -9.8155314   22.7282591  0.00   -1.0078608   -1.6491365   -0.9756687
 C    2.7799827   -6.9180143   22.7600822  0.00   -2.0943024    0.3023890   -0.9229046
 H    2.7537754   -6.0902432   22.2196290  0.00   -0.6153111    1.9439966   -2.1031809
 H    2.1818568   -7.6061803   22.4043077  0.00   -0.8027217   -2.5905014   -1.3695794
 H    2.1625919   -6.6351710   23.4662651  0.00   -2.2130596    0.7888655    1.8487663
 C    3.8015802   -9.1817067   26.9911274  0.00    1.1420260   -0.9581951   -0.4988188
 H    3.4456384   -8.5927305   26.2611655  0.00   -0.7411413    1.2766460   -1.5855433
 H    3.0400590   -9.7293033   27.3441884  0.00   -1.6637450   -1.2389186    0.7837410
 H    4.1251446   -8.5887918   27.7325999  0.00    0.7252030    1.2805371    1.6107670
 C    5.5956952   -9.0647953   21.8381623  0.00   -0.6146642    1.5810698   -0.3057148
 H    4.9689676   -9.5698252   22.4367905  0.00   -1.3655037   -1.0692551    1.3099532
 H    5.7051452   -9.5944012   20.9925283  0.00    0.2066296   -1.1067349   -1.8627920
 H    6.4892907   -9.0268032   22.2932264  0.00    1.9389741    0.0803186    1.0014341
 C    9.9800481   -7.8930306   25.3378789  0.00   -0.7929951   -1.2544434   -0.7441692
 H    9.8470888   -7.9407000   26.3307330  0.00   -0.3050308   -0.1059269    2.1645100
 H   10.9674549   -7.8992515   25.1596300  0.00    2.1412108   -0.0699597   -0.3991387
 H    9.6160440   -7.0140959   25.0207977  0.00   -0.7899012    1.9288693   -0.6890378
 C    2.3755855   -5.8191991   26.5225747  0.00    0.6171595    0.5028665   -1.4460599
 H    3.1038481   -5.9795737   27.1934572  0.00    1.5879546   -0.3594925    1.4485341
 H    1.7353521   -5.1553336   26.9172786  0.00   -1.3780286    1.4778964    0.8265738
 H    1.8823008   -6.6825741   26.3931198  0.00   -1.0601896   -1.8785066   -0.3039703
 C    8.0141668   -9.9682020   26.3133779  0.00    3.3460726   -4.6558601    2.0075684
 H    7.4264485  -10.6156904   26.6485803  0.00   -2.2743076   -3.7981097    2.7890451
 H    8.7029701  -10.6001728   26.2056986  0.00    3.3898644   -1.9820219   -0.6414907
 H    7.8275162   -9.4285326   26.9964970  0.00    0.0535890    3.8885180    5.1291106
 C    5.6070340   -5.4426460   29.0381490  0.00    1.4459278   -0.1440211   -0.7972423
 H    4.9574211   -6.1476411   28.7426552  0.00   -1.4172578   -1.5365171   -0.6641223
 H    5.7110337   -5.5186153   30.0330765  0.00    0.2641856   -0.1777125    2.1558289
 H    5.2003126   -4.5478824   28.8390463  0.00   -0.8879815    1.9470031   -0.4524530
 C    9.4103498   -4.4966367   23.2134970  0.00   -1.3163440    0.5614205    0.8063791
 H    9.2213611   -5.3629794   22.7447861  0.00   -0.4198442   -1.9007012   -1.0086877
 H    9.7233765   -3.8369444   22.5252640  0.00    0.6422662    1.4628023   -1.4889017
 H   10.1644465   -4.6525632   23.8554235  0.00    1.6199321   -0.3481809    1.4191133
 C    7.0858724   -3.7546424   22.9522658  0.00    1.1870495   -0.2652353    1.0974274
 H    6.2799128   -3.3752199   23.4125467  0.00   -1.7583350    0.8150962    1.0187542
 H    7.3654865   -3.1073839   22.2384440  0.00    0.6479134    1.4162956   -1.5272589
 H    6.8096197   -4.6074810   22.5023901  0.00   -0.6156721   -1.8639097   -0.9776983
 C    3.6595253   -4.0235908   25.4474757  0.00   -0.8535396   -1.4376831   -0.2614475
 H    3.9771876   -3.6375840   24.5778490  0.00    0.6818645    0.8042107   -1.9093603
 H    3.0632233   -3.3462625   25.8853030  0.00   -1.3452159    1.4812986    0.9518719
 H    4.4619997   -4.1528749   26.0365442  0.00    1.7309852   -0.3187386    1.2818058
 C    7.1724006   -3.4308283   26.5339015  0.00    0.1942230    1.4258476    0.5574626
 H    8.1669297   -3.5543789   26.6286542  0.00    3.0302016    1.4775764    1.2608056
 H    6.9890345   -2.5516314   26.1374283  0.00   -0.4326020    2.1437152   -1.6751227
 H    6.7503080   -3.5211089   27.4235988  0.00   -0.9895022    0.2415539    2.1242433
 C    4.4128759  -10.8956258   25.3559547  0.00    0.5462076    0.9253188    1.2422748
 H    5.1469060  -11.4804174   25.0023245  0.00    1.6109756   -1.2735124   -0.7689257
 H    3.6594361  -11.4905330   25.6474952  0.00   -1.6380372   -1.2989003    0.6776590
 H    4.0809331  -10.3276491   24.5987768  0.00   -0.7071980    1.2554276   -1.6490133
 C    5.9751660   -6.9852767   20.5850196  0.00   -0.9936347   -0.7482284    1.0827706
 H    6.9064865   -6.9099889   20.9497791  0.00    2.0327584    0.1729664    0.8053243
 H    6.0257997   -7.4811359   19.7140765  0.00    0.0843515   -1.1130889   -1.8729099
 H    5.6442098   -6.0587685   20.3928132  0.00   -0.7386734    2.0265499   -0.3956657
82
 Energy =   -1745.7239534890
Ce    6.2312252   -6.9575935   24.9856646  0.00   -0.0916849    0.0057371    0.1793050
 N    3.8783492   -6.2888300   24.6704972  0.00    0.8628672    0.5073489    0.4477315
 N    7.8317267   -8.8610066   24.7383459  0.00   -0.4260860    1.5301113   -2.7014625
 N    5.0212341   -6.9087737   22.7950809  0.00    1.3531814    0.1140860    0.0596868
 N    5.9700326   -9.1650346   26.0599844  0.00   -1.1311546    0.4610475   -1.0927773
 N    6.7775596   -5.5114495   26.8989295  0.00    0.4511348   -2.1410201   -0.0333078
 N    7.7907595   -4.9918835   24.9141914  0.00    0.7471496   -0.8556655   -0.4109267
 C    7.1132201   -9.5768582   25.5384868  0.00   -1.2094912    3.1840949   -3.1191338
 C    2.9606429   -5.3326077   25.2419122  0.00    0.6875527   -0.4185400    0.1128678
 H    2.1723629   -5.1678072   24.5774062  0.00   -0.9645564    0.2121723   -0.7630575
 C    8.1876666   -4.0207305   23.9211072  0.00   -0.2430484   -0.7097988    0.1857648
 H    8.4227844   -3.1204146   24.3903780  0.00    0.2876407    1.1041251    0.5735738
 C    3.9067628   -6.6152717   23.3864790  0.00    2.4373465   -1.3756771    1.2353555
 C    4.8996057  -10.0309122   26.4689261  0.00    0.2805173    0.5550018   -0.4324470