84
Energy = -2580.736675596
N     3.9592244   -6.3897215   24.5818111 
N     7.8633854   -8.7808730   25.0111566 
N     4.9124223   -7.7951600   23.1026648 
N     5.9486510   -9.1291488   26.1244768 
N     6.9607462   -5.3658634   26.5391555 
N     7.2486033   -3.9919708   24.7097116 
C     7.1232518   -9.6186064   25.7275388 
C     2.9821783   -5.4069656   24.9986917 
H     2.3380400   -5.1168970   24.1470592 
C     7.9904895   -2.9856115   23.9437366 
H     8.0733072   -2.1072319   24.6013152 
C     3.8600598   -7.0488021   23.4293673 
C     4.9301053   -9.9485760   26.7450657 
H     5.3852768  -10.6492224   27.4766417 
C     7.3657142   -4.2359409   26.0540613 
C     7.6160452   -7.0117953   28.2316077 
H     8.6229873   -7.0857585   27.7897535 
H     7.6986283   -7.1907536   29.3181993 
H     6.9898065   -7.8106221   27.7951612 
C     7.0178141   -5.6337186   27.9759751 
H     7.6841531   -4.9118614   28.4788880 
C     9.2238082   -9.0648983   24.6079070 
H     9.4174020  -10.1554141   24.6360211 
C     5.0466599   -8.4932570   21.8443660 
H     4.0574326   -8.6416003   21.3695764 
C     9.4679997   -8.6062400   23.1720139 
H     9.2701267   -7.5250513   23.0710220 
H    10.5122493   -8.8066148   22.8713933 
H     8.8027527   -9.1381187   22.4709062 
C     2.6488522   -6.9742639   22.5215843 
H     2.8796896   -6.3981530   21.6081464 
H     2.3531396   -7.9864101   22.2025395 
H     1.7798348   -6.5124549   23.0084433 
C     3.9697197   -9.0652299   27.5317159 
H     3.4917257   -8.3318151   26.8599733 
H     3.1778572   -9.6681861   28.0100671 
H     4.5048989   -8.5130207   28.3228530 
C     5.6378800   -9.8818976   22.0767804 
H     4.9725413  -10.4848564   22.7172756 
H     5.7836076  -10.4178622   21.1217487 
H     6.6132215   -9.8022736   22.5876418 
C    10.2227447   -8.3999426   25.5587660 
H    10.0900215   -8.7633318   26.5933363 
H    11.2652421   -8.6056761   25.2539292 
H    10.0681141   -7.3063031   25.5563581 
C     2.0588342   -5.9420392   26.0941816 
H     2.6370311   -6.1968305   26.9994317 
H     1.2945360   -5.1943494   26.3748511 
H     1.5402600   -6.8573391   25.7589865 
C     7.6038412  -11.0151923   26.0589551 
H     6.8972269  -11.5649028   26.6947925 
H     7.7554782  -11.5975648   25.1337626 
H     8.5738715  -10.9738470   26.5826807 
C     5.6328047   -5.4884670   28.6008917 
H     4.9080045   -6.1609774   28.1106540 
H     5.6640159   -5.7416531   29.6751005 
H     5.2562761   -4.4555291   28.5017282 
C     9.3933904   -3.4578091   23.5656050 
H     9.3324373   -4.3451872   22.9172871 
H     9.9332835   -2.6515527   23.0382230 
H     9.9779441   -3.7376825   24.4591311 
C     7.1779360   -2.5703678   22.7235942 
H     6.1620130   -2.2544660   23.0149922 
H     7.6768324   -1.7262064   22.2184411 
H     7.0894219   -3.4031392   22.0078345 
C     3.6762130   -4.1231987   25.4502904 
H     4.2973026   -3.7126033   24.6363820 
H     2.9356500   -3.3585262   25.7475656 
H     4.3357049   -4.3208229   26.3116595 
C     7.9287837   -3.0749569   26.8369042 
H     8.9950540   -2.9190665   26.6004284 
H     7.3857215   -2.1493873   26.5873924 
H     7.8412175   -3.2275560   27.9187250 
C     4.1663535  -10.7860536   25.7160016 
H     4.8461992  -11.4613566   25.1671301 
H     3.3863922  -11.4033945   26.1984279 
H     3.6854855  -10.1236384   24.9749483 
C     5.9019259   -7.6810952   20.8673614 
H     6.8947533   -7.4762632   21.3046968 
H     6.0354105   -8.2165988   19.9095328 
H     5.4298290   -6.7055873   20.6538891 
Yb    6.2349925   -7.1208459   24.8623199 
O     7.7327957   -6.0430487   23.7437784 
O     6.7457070   -4.9855912   23.9468654 
