57
 Energy =   -2082.5817859790
 N    8.2827521   -8.2390976   25.7227133  0.00   -0.1583480    0.0745048   -0.0112626
 N    6.1912707   -9.0545053   25.8909612  0.00   -0.0782287    0.0746283    0.0094707
 N    6.8286363   -5.4852579   26.9607028  0.00   -0.0635666   -0.0421999   -0.0521579
 N    7.5106300   -4.7575069   24.9505502  0.00   -0.1178071   -0.0518073   -0.0324251
 C    7.5022581   -9.2777938   25.9912592  0.00    0.0077851    0.0291899   -0.0102683
 C    8.1191129   -3.8359574   24.0159089  0.00    0.0237973    0.0191751   -0.0501772
 H    8.1407360   -2.8124726   24.4426327  0.00   -0.0057213   -0.0096697    0.0080454
 C    5.2154333  -10.1037832   26.0871109  0.00   -0.0186793   -0.0395786   -0.0165851
 H    5.5267637  -10.7751254   26.9134718  0.00   -0.0043150    0.0168742   -0.0007395
 C    7.5140708   -4.5781055   26.2681538  0.00   -0.0644632    0.0299439    0.0252067
 C    6.5559074   -6.9413864   28.8883087  0.00    0.0049243    0.0048293   -0.0019443
 H    7.3209257   -7.6275004   28.4884221  0.00    0.0033188   -0.0011660    0.0014611
 H    6.5717568   -6.9947809   29.9916730  0.00   -0.0004376   -0.0010672   -0.0056030
 H    5.5711930   -7.2992469   28.5394120  0.00   -0.0096359    0.0015196   -0.0005726
 C    6.8150790   -5.5175239   28.4071152  0.00   -0.0243200   -0.0125925    0.0263853
 H    7.8094829   -5.2302075   28.8096360  0.00   -0.0043069   -0.0004881   -0.0114510
 C    9.7242304   -8.3058564   25.7544874  0.00    0.0528164    0.0401586   -0.0332471
 H   10.0636754   -9.1933524   26.3228843  0.00   -0.0240217    0.0071951   -0.0001192
 C   10.2990643   -8.4304395   24.3406477  0.00   -0.0064003   -0.0006432   -0.0044931
 H   10.0099876   -7.5542972   23.7329528  0.00   -0.0045250   -0.0085637   -0.0022946
 H   11.4027549   -8.4887255   24.3558825  0.00   -0.0052842   -0.0008860    0.0066150
 H    9.9134906   -9.3356286   23.8383510  0.00   -0.0013713    0.0069026   -0.0021867
 C    3.8783662   -9.5064686   26.5055273  0.00    0.0345971    0.0198373    0.0416361
 H    3.4916599   -8.8437808   25.7125537  0.00   -0.0511226    0.0201998   -0.0414085
 H    3.1323250  -10.2992472   26.6924659  0.00   -0.0069934    0.0273097   -0.0166738
 H    3.9874105   -8.9079405   27.4254765  0.00    0.0002815    0.0051158    0.0189629
 C   10.2919675   -7.0823351   26.4703551  0.00   -0.0065637   -0.0003610    0.0074397
 H    9.9089297   -7.0257456   27.5035637  0.00    0.0007355    0.0011038    0.0034535
 H   11.3957060   -7.1183345   26.5069798  0.00   -0.0072126   -0.0007251   -0.0014739
 H    9.9892699   -6.1600085   25.9459670  0.00    0.0036189   -0.0006367   -0.0035093
 C    8.0918660  -10.6157145   26.3920515  0.00   -0.0075308    0.0117552   -0.0064110
 H    7.3282809  -11.3873799   26.5525352  0.00    0.0011564    0.0033387   -0.0033052
 H    8.7853207  -10.9795711   25.6151251  0.00   -0.0043614    0.0033574   -0.0007747
 H    8.6709156  -10.5146258   27.3262694  0.00   -0.0033095    0.0035873   -0.0007358
 C    5.7850342   -4.5501579   28.9970128  0.00    0.0120182    0.0028448   -0.0096011
 H    4.7687657   -4.8198530   28.6596366  0.00   -0.0128308   -0.0077987   -0.0121243
 H    5.7992393   -4.5743794   30.1019656  0.00   -0.0015257   -0.0018471   -0.0054734
 H    5.9787285   -3.5115064   28.6764743  0.00   -0.0024735   -0.0008141    0.0006057
 C    9.5616139   -4.2240749   23.6799393  0.00   -0.0008272   -0.0096165    0.0023053
 H    9.5847530   -5.2337555   23.2331126  0.00   -0.0053698    0.0030419   -0.0025928
 H   10.0084578   -3.5156727   22.9586940  0.00   -0.0046834   -0.0015336    0.0050283
 H   10.1994827   -4.2407512   24.5805370  0.00    0.0030273    0.0026465    0.0008041
 C    7.2811220   -3.7790018   22.7391862  0.00    0.0002213   -0.0146865    0.0113418
 H    6.2655813   -3.4058474   22.9557892  0.00   -0.0174383    0.0135168    0.0078909
 H    7.7426018   -3.1106761   21.9898691  0.00   -0.0094614   -0.0028691    0.0046749
 H    7.1855945   -4.7927352   22.3113185  0.00    0.0081017   -0.0073477   -0.0048303
 C    8.2298509   -3.4066146   26.9036240  0.00    0.0111453   -0.0159016   -0.0008991
 H    9.2237360   -3.2551686   26.4529736  0.00   -0.0022898   -0.0010572   -0.0008571
 H    7.6486820   -2.4817344   26.7375596  0.00    0.0009177   -0.0066165   -0.0023693
 H    8.3583262   -3.5307926   27.9878934  0.00   -0.0012261    0.0003440   -0.0037044
 C    5.0398365  -10.9595487   24.8291302  0.00    0.0035677    0.0105714    0.0057671
 H    5.9926512  -11.4268783   24.5238376  0.00   -0.0063578    0.0077488   -0.0035404
 H    4.2977422  -11.7639089   24.9866040  0.00    0.0027285    0.0079763   -0.0018152
 H    4.6971073  -10.3230039   23.9939446  0.00    0.0059201   -0.0145083   -0.0219403
Yb    6.5250372   -6.8656652   25.0175730  0.00    0.8447461   -0.3642266   -0.3630458
 O    6.9207042   -7.2878442   23.0000874  0.00   -0.2612379    0.1719547    0.5686127
 H    7.6995408   -7.6388062   22.5567001  0.00   -0.0266889    0.0021730   -0.0151935
57
 Energy =   -2082.5850237140
 N    8.2760538   -8.2359457   25.7222372  0.00    0.1538400    0.0577367   -0.0162758
 N    6.1879645   -9.0513500   25.8913588  0.00    0.0293836   -0.0185991    0.0192024
 N    6.8259468   -5.4870495   26.9584977  0.00   -0.0228239    0.0070022    0.0048758
 N    7.5056465   -4.7597017   24.9491825  0.00   -0.0346205    0.0332082   -0.0450007
 C    7.5025933   -9.2765613   25.9908226  0.00   -0.1834380   -0.0182384    0.0102009
 C    8.1201247   -3.8351454   24.0137918  0.00   -0.0279783   -0.0300994    0.0199324
 H    8.1404969   -2.8128824   24.4429820  0.00   -0.0035161   -0.0075210    0.0031692
 C    5.2146487  -10.1054637   26.0864024  0.00   -0.0111699    0.0257398   -0.0017042
 H    5.5265864  -10.7744171   26.9134335  0.00    0.0021928    0.0069334    0.0034780
 C    7.5113436   -4.5768415   26.2692262  0.00   -0.0971757   -0.0519030   -0.0106885
 C    6.5561157   -6.9411902   28.8882267  0.00   -0.0127327   -0.0090036    0.0031445
 H    7.3210672   -7.6275569   28.4884843  0.00    0.0025803    0.0008410    0.0010373
 H    6.5717367   -6.9948361   29.9914360  0.00    0.0007667   -0.0024000   -0.0011130
 H    5.5707858   -7.2991910   28.5393862  0.00    0.0008677    0.0039876    0.0007356
 C    6.8140490   -5.5180643   28.4082351  0.00   -0.0072732   -0.0050907   -0.0364393
 H    7.8092994   -5.2302355   28.8091559  0.00   -0.0065861   -0.0011252   -0.0114267
 C    9.7264716   -8.3041575   25.7530825  0.00   -0.0629447    0.0143623   -0.0015722
 H   10.0626636   -9.1930497   26.3228810  0.00   -0.0321412    0.0218794   -0.0116425
 C   10.2988007   -8.4304654   24.3404607  0.00   -0.0010806    0.0029991   -0.0064920
 H   10.0098035   -7.5546577   23.7328599  0.00   -0.0006284   -0.0015458   -0.0084251
 H   11.4025385   -8.4887609   24.3561672  0.00   -0.0069676    0.0001493    0.0027590
 H    9.9134412   -9.3353346   23.8382598  0.00   -0.0028879    0.0004539   -0.0025696
 C    3.8798359   -9.5056355   26.5072826  0.00   -0.0232491    0.0202644   -0.0314341
 H    3.4895014   -8.8429314   25.7107939  0.00   -0.0210597   -0.0092735    0.0062981
 H    3.1320344  -10.2980986   26.6917505  0.00   -0.0013955    0.0299468   -0.0096726
 H    3.9874258   -8.9077319   27.4262731  0.00    0.0078948    0.0151281    0.0309083
 C   10.2916930   -7.0823523   26.4706753  0.00    0.0008874    0.0113448   -0.0019465
 H    9.9089628   -7.0257027   27.5037147  0.00   -0.0023074   -0.0007502    0.0038648
 H   11.3954040   -7.1183664   26.5069241  0.00   -0.0059879    0.0008398   -0.0001853
 H    9.9894265   -6.1600368   25.9458247  0.00    0.0043581    0.0019391    0.0004993
 C    8.0915533  -10.6152203   26.3917770  0.00    0.0016240    0.0232928   -0.0060284
 H    7.3283363  -11.3872428   26.5523899  0.00   -0.0017228    0.0086338   -0.0048458
 H    8.7851435  -10.9794307   25.6150896  0.00   -0.0037899    0.0041400   -0.0011486
 H    8.6707802  -10.5144783   27.3262361  0.00   -0.0057594    0.0046450   -0.0041637
 C    5.7855410   -4.5500465   28.9966092  0.00   -0.0179041   -0.0070957   -0.0019699
 H    4.7682212   -4.8201925   28.6591243  0.00    0.0035328   -0.0022579   -0.0074678
 H    5.7991712   -4.5744683   30.1017367  0.00   -0.0017928   -0.0003561   -0.0061737
 H    5.9786215   -3.5115493   28.6765046  0.00    0.0007809    0.0031871   -0.0027897
 C    9.5615840   -4.2244802   23.6800454  0.00    0.0043288    0.0033400    0.0002669
 H    9.5845322   -5.2336243   23.2330099  0.00   -0.0021054   -0.0039754   -0.0061816
 H   10.0082651   -3.5157344   22.9589171  0.00   -0.0005651   -0.0042431    0.0036396
 H   10.1996148   -4.2406383   24.5805805  0.00    0.0008981    0.0014409    0.0006847
 C    7.2811374   -3.7796220   22.7396725  0.00   -0.0104594    0.0107434   -0.0111134
 H    6.2648486   -3.4052748   22.9561285  0.00    0.0002761    0.0018885    0.0068858
 H    7.7422079   -3.1107946   21.9900748  0.00   -0.0118770   -0.0063430    0.0022154
 H    7.1859449   -4.7930441   22.3111185  0.00    0.0047463   -0.0032916   -0.0043371
 C    8.2303228   -3.4072919   26.9035939  0.00   -0.0134605   -0.0014337   -0.0049714
 H    9.2236397   -3.2552160   26.4529469  0.00    0.0038656   -0.0039455   -0.0054071
 H    7.6487204   -2.4820188   26.7374679  0.00    0.0075938   -0.0107633    0.0005227
 H    8.3582729   -3.5307837   27.9877445  0.00   -0.0000081   -0.0018396    0.0009531
 C    5.0399960  -10.9591045   24.8293665  0.00   -0.0056728   -0.0009997   -0.0120437
 H    5.9923913  -11.4265524   24.5236805  0.00   -0.0019642    0.0047439   -0.0025722
 H    4.2978665  -11.7635753   24.9865170  0.00    0.0034592    0.0074378   -0.0031644
 H    4.6973671  -10.3236204   23.9930084  0.00    0.0051679   -0.0132866   -0.0156338
Yb    6.5608040   -6.8810869   25.0022041  0.00    0.5801159   -0.1883190   -0.0301222
 O    6.9096532   -7.2805637   23.0241594  0.00    0.2695469   -0.1083559   -0.0014437
 H    7.6984202   -7.6387120   22.5560577  0.00   -0.4486568    0.1890975    0.2006854
57
 Energy =   -2082.5876322500
 N    8.2790176   -8.2301079   25.7209353  0.00    0.0846893   -0.1796541    0.0516123
 N    6.1868433   -9.0497549   25.8927546  0.00   -0.0385601   -0.0655440    0.0064276
 N    6.8224340   -5.4881646   26.9569314  0.00   -0.0241773   -0.0105534    0.0391992
 N    7.4995639   -4.7596920   24.9455452  0.00    0.0037909    0.0352728    0.0037940
 C    7.4926824   -9.2765512   25.9910225  0.00    0.1070145    0.0703135    0.0055403
 C    8.1194190   -3.8361414   24.0131411  0.00   -0.0393526   -0.0092231    0.0386720
 H    8.1401048   -2.8136444   24.4434614  0.00   -0.0032870   -0.0144308   -0.0039455
 C    5.2133796  -10.1054439   26.0857090  0.00   -0.0221167    0.0360868    0.0156082
 H    5.5265671  -10.7734490   26.9135870  0.00   -0.0002024    0.0117926   -0.0061308
 C    7.5036662   -4.5786771   26.2695346  0.00   -0.0301579   -0.0013495   -0.0631919
 C    6.5555832   -6.9415390   28.8883341  0.00   -0.0079447   -0.0092246   -0.0056144
 H    7.3213311   -7.6275679   28.4885945  0.00   -0.0012746    0.0022238    0.0030359
 H    6.5717625   -6.9950299   29.9911773  0.00    0.0011911   -0.0018019    0.0049940
 H    5.5704958   -7.2989349   28.5394047  0.00   -0.0030917    0.0001301   -0.0010033
 C    6.8127850   -5.5188096   28.4071489  0.00    0.0046547    0.0054744   -0.0373617
 H    7.8087799   -5.2303322   28.8081257  0.00   -0.0146580   -0.0034749   -0.0160559
 C    9.7248504   -8.3019433   25.7518239  0.00    0.0005545   -0.0256460    0.0208724
 H   10.0600379   -9.1915845   26.3222317  0.00   -0.0326293    0.0286752   -0.0165059
 C   10.2985283   -8.4303200   24.3399462  0.00    0.0019939    0.0035783    0.0005916
 H   10.0096228   -7.5550434   23.7323178  0.00    0.0027122    0.0057929   -0.0167000
 H   11.4019784   -8.4887810   24.3565621  0.00   -0.0034341    0.0009565    0.0004362
 H    9.9132487   -9.3350628   23.8380409  0.00   -0.0045177   -0.0038507   -0.0032951
 C    3.8797772   -9.5038226   26.5069939  0.00   -0.0356898    0.0354163   -0.0216278
 H    3.4865345   -8.8427456   25.7096678  0.00   -0.0063510   -0.0088706    0.0212918
 H    3.1317207  -10.2954849   26.6906055  0.00   -0.0038914    0.0190309   -0.0025490
 H    3.9878821   -8.9067279   27.4286506  0.00    0.0043871    0.0037494   -0.0007469
 C   10.2915173   -7.0817400   26.4708398  0.00    0.0037333    0.0063111   -0.0014058
 H    9.9088651   -7.0257149   27.5040606  0.00   -0.0032820   -0.0000880   -0.0000233
 H   11.3948232   -7.1183495   26.5068738  0.00    0.0002283    0.0014138   -0.0004516
 H    9.9898037   -6.1599558   25.9457404  0.00    0.0036654    0.0141899    0.0005862
 C    8.0913896  -10.6135183   26.3912080  0.00   -0.0454643    0.0184586   -0.0054809
 H    7.3282945  -11.3866549   26.5519921  0.00    0.0092217    0.0107892   -0.0042732
 H    8.7847933  -10.9790868   25.6149916  0.00   -0.0061642    0.0159837   -0.0055813
 H    8.6703530  -10.5141040   27.3259731  0.00   -0.0083576    0.0151801   -0.0062941
 C    5.7849681   -4.5503609   28.9961676  0.00   -0.0162100   -0.0034965   -0.0064280
 H    4.7679626   -4.8206145   28.6582847  0.00    0.0012316   -0.0004090   -0.0071500
 H    5.7990125   -4.5745775   30.1012074  0.00   -0.0021206   -0.0020524   -0.0043464
 H    5.9785742   -3.5114200   28.6763823  0.00   -0.0006948   -0.0040262   -0.0027657
 C    9.5618049   -4.2246320   23.6801592  0.00   -0.0107578   -0.0023211    0.0047711
 H    9.5842373   -5.2337337   23.2325887  0.00    0.0033559   -0.0039403   -0.0067468
 H   10.0080783   -3.5160190   22.9593180  0.00    0.0029245   -0.0003869   -0.0017108
 H   10.1997792   -4.2404641   24.5806658  0.00    0.0001900   -0.0000597    0.0017121
 C    7.2805749   -3.7795417   22.7394692  0.00   -0.0141510    0.0066733   -0.0121772
 H    6.2642575   -3.4046917   22.9568026  0.00    0.0074072   -0.0067551    0.0047192
 H    7.7412251   -3.1112431   21.9903800  0.00   -0.0056399    0.0019387   -0.0096149
 H    7.1865088   -4.7934832   22.3107165  0.00   -0.0008772    0.0087792   -0.0038737
 C    8.2299693   -3.4079439   26.9033027  0.00   -0.0397081   -0.0328138   -0.0170412
 H    9.2237752   -3.2554798   26.4526358  0.00   -0.0058666   -0.0136726   -0.0069481
 H    7.6491748   -2.4828614   26.7374318  0.00    0.0038776   -0.0002957    0.0005797
 H    8.3582275   -3.5308872   27.9876834  0.00   -0.0009563   -0.0030683   -0.0011732
 C    5.0398233  -10.9587940   24.8288854  0.00    0.0031667    0.0078590   -0.0162861
 H    5.9920752  -11.4260201   24.5233975  0.00    0.0027341    0.0001001   -0.0015050
 H    4.2981726  -11.7628891   24.9862570  0.00   -0.0007923    0.0040136   -0.0010754
 H    4.6978812  -10.3248774   23.9913493  0.00    0.0008010   -0.0089580   -0.0152026
Yb    6.6229314   -6.9044400   24.9876948  0.00    0.2368284    0.0792347    0.3283698
 O    6.9154163   -7.2805065   23.0441849  0.00   -0.0524126   -0.0093826   -0.1099723
 H    7.6725524   -7.6281195   22.5666785  0.00   -0.0112686   -0.0170797   -0.1148625
57
 Energy =   -2082.5883638760
 N    8.2827762   -8.2367698   25.7229571  0.00    0.1445655   -0.0216827    0.0211949
 N    6.1846351   -9.0521167   25.8933353  0.00    0.1131386    0.0282606   -0.0012999
 N    6.8204726   -5.4890045   26.9582035  0.00    0.0026052    0.0135825   -0.0335272
 N    7.4981753   -4.7583099   24.9449256  0.00   -0.0012187    0.0142741   -0.0044009
 C    7.4956466   -9.2733117   25.9912697  0.00   -0.1026178   -0.1359314    0.0471307
 C    8.1176230   -3.8366711   24.0145707  0.00   -0.0089283    0.0081187   -0.0141991
 H    8.1398677   -2.8144687   24.4434137  0.00   -0.0057267   -0.0040064    0.0030993
 C    5.2120952  -10.1039820   26.0862131  0.00   -0.0206937   -0.0085123   -0.0012115
 H    5.5265452  -10.7726895   26.9133360  0.00   -0.0097017    0.0101349   -0.0047314
 C    7.5006594   -4.5789761   26.2668714  0.00   -0.0258462    0.0060330    0.0255595
 C    6.5551498   -6.9420083   28.8880993  0.00   -0.0018268    0.0054697   -0.0002825
 H    7.3213385   -7.6274844   28.4887583  0.00   -0.0003191   -0.0025855    0.0025000
 H    6.5718202   -6.9951622   29.9913342  0.00    0.0010600   -0.0004872   -0.0017450
 H    5.5702716   -7.2988865   28.5393627  0.00   -0.0072886   -0.0033808   -0.0028352
 C    6.8126705   -5.5187597   28.4053810  0.00   -0.0130987   -0.0027988    0.0128542
 H    7.8080147   -5.2305166   28.8071820  0.00   -0.0081139   -0.0008040   -0.0154169
 C    9.7247717   -8.3025330   25.7524031  0.00    0.0484826   -0.0174441    0.0045313
 H   10.0580116   -9.1900108   26.3213766  0.00   -0.0025598   -0.0061846    0.0057234
 C   10.2985503   -8.4301375   24.3398643  0.00   -0.0071213   -0.0002570   -0.0018860
 H   10.0097007   -7.5548891   23.7314683  0.00    0.0039230    0.0014747   -0.0118564
 H   11.4017088   -8.4887464   24.3566839  0.00   -0.0004839    0.0011971    0.0009609
 H    9.9130144   -9.3351602   23.8378475  0.00   -0.0016630    0.0012703   -0.0007671
 C    3.8783061   -9.5018415   26.5061240  0.00   -0.0144953    0.0095155    0.0153874
 H    3.4855186   -8.8430413   25.7102546  0.00   -0.0165513    0.0166576   -0.0036798
 H    3.1314695  -10.2940593   26.6902131  0.00   -0.0087747    0.0149885   -0.0007963
 H    3.9881685   -8.9063652   27.4291269  0.00   -0.0010162    0.0047884   -0.0090665
 C   10.2916317   -7.0813505   26.4708405  0.00   -0.0088515    0.0004742    0.0012784
 H    9.9087066   -7.0257235   27.5041420  0.00   -0.0010342    0.0017434   -0.0012501
 H   11.3947033   -7.1182900   26.5068455  0.00    0.0016690    0.0013869   -0.0009216
 H    9.9900549   -6.1593142   25.9457448  0.00    0.0049686    0.0124635    0.0008016
 C    8.0893100  -10.6123411   26.3908332  0.00    0.0155691    0.0186497   -0.0027416
 H    7.3287095  -11.3860587   26.5517126  0.00   -0.0116516    0.0039020   -0.0031518
 H    8.7844448  -10.9783020   25.6147206  0.00   -0.0177794    0.0201094    0.0050052
 H    8.6698944  -10.5133509   27.3256403  0.00   -0.0150592    0.0113477   -0.0143258
 C    5.7841827   -4.5505761   28.9957690  0.00    0.0013149   -0.0015714   -0.0056966
 H    4.7679237   -4.8207511   28.6577693  0.00   -0.0079045   -0.0022252   -0.0095563
 H    5.7988825   -4.5747088   30.1009003  0.00   -0.0022991   -0.0035859   -0.0066659
 H    5.9785256   -3.5115891   28.6762453  0.00   -0.0030212   -0.0047906   -0.0028530
 C    9.5613680   -4.2248003   23.6804106  0.00   -0.0172154   -0.0027339    0.0074437
 H    9.5843185   -5.2339195   23.2322075  0.00    0.0021162   -0.0006483   -0.0048913
 H   10.0081620   -3.5160949   22.9593450  0.00   -0.0038841   -0.0033946    0.0035415
 H   10.1998335   -4.2404269   24.5807706  0.00   -0.0009476   -0.0006234    0.0006433
 C    7.2798451   -3.7792841   22.7389371  0.00   -0.0006445    0.0002711    0.0018856
 H    6.2644193   -3.4048377   22.9571748  0.00   -0.0047487   -0.0039798    0.0026926
 H    7.7407616   -3.1112508   21.9900339  0.00   -0.0035459    0.0049428   -0.0079072
 H    7.1866106   -4.7932011   22.3104575  0.00   -0.0045625    0.0060228   -0.0041736
 C    8.2281743   -3.4095939   26.9024939  0.00   -0.0149804   -0.0169892   -0.0150387
 H    9.2235323   -3.2561482   26.4522748  0.00   -0.0257383   -0.0199903   -0.0019084
 H    7.6494370   -2.4830623   26.7374521  0.00    0.0013788   -0.0012721   -0.0002997
 H    8.3581727   -3.5310502   27.9876151  0.00   -0.0078494   -0.0083338   -0.0143288
 C    5.0399537  -10.9583529   24.8280862  0.00   -0.0069635    0.0050576    0.0027062
 H    5.9921240  -11.4258931   24.5232609  0.00    0.0052191    0.0009244    0.0002222
 H    4.2982129  -11.7625598   24.9861483  0.00    0.0013857    0.0055269   -0.0029710
 H    4.6980429  -10.3255690   23.9902787  0.00   -0.0004445   -0.0030976   -0.0186658
Yb    6.6481490   -6.9065854   24.9983236  0.00    0.1197688    0.0748808    0.2497289
 O    6.9132056   -7.2802897   23.0450821  0.00   -0.0618363    0.0082398   -0.0647325
 H    7.6671448   -7.6269028   22.5634783  0.00    0.0054270   -0.0270596   -0.1307349
57
 Energy =   -2082.5890086230
 N    8.2976892   -8.2457136   25.7268484  0.00   -0.1352304   -0.0762121    0.0609741
 N    6.1899052   -9.0524644   25.8941122  0.00   -0.0524873    0.0122109    0.0156417
 N    6.8176957   -5.4893140   26.9569235  0.00   -0.0167387   -0.0062612    0.0234322
 N    7.4953641   -4.7557885   24.9433989  0.00   -0.0042085    0.0067843    0.0421658
 C    7.4908465   -9.2793155   25.9950450  0.00    0.1860627   -0.0095687   -0.0003047
 C    8.1148127   -3.8367273   24.0150101  0.00    0.0286913    0.0195849   -0.0472459
 H    8.1391015   -2.8158883   24.4436772  0.00   -0.0078428    0.0158227    0.0085101
 C    5.2088105  -10.1030045   26.0866070  0.00    0.0267732    0.0206583   -0.0233079
 H    5.5257893  -10.7708663   26.9126852  0.00   -0.0170627    0.0054643    0.0001689
 C    7.4941286   -4.5789362   26.2656550  0.00    0.0379763    0.0678564   -0.0109171
 C    6.5544625   -6.9422027   28.8877979  0.00   -0.0025837    0.0041257   -0.0002737
 H    7.3213659   -7.6275947   28.4891658  0.00   -0.0015850   -0.0026638    0.0025262
 H    6.5719715   -6.9953998   29.9913562  0.00   -0.0005771    0.0014046   -0.0085215
 H    5.5693948   -7.2990659   28.5391037  0.00   -0.0052354   -0.0043958   -0.0001123
 C    6.8113483   -5.5190396   28.4041988  0.00   -0.0186008   -0.0048642    0.0198816
 H    7.8064153   -5.2308271   28.8047569  0.00    0.0004252    0.0018673   -0.0129254
 C    9.7283669   -8.3041925   25.7532059  0.00    0.1145249   -0.0108957   -0.0129970
 H   10.0550228   -9.1883946   26.3207061  0.00    0.0720971   -0.0698622    0.0454264
 C   10.2980109   -8.4299276   24.3395701  0.00    0.0317517   -0.0040630   -0.0126613
 H   10.0100650   -7.5546645   23.7295035  0.00    0.0014416   -0.0065612    0.0013128
 H   11.4012847   -8.4886240   24.3569782  0.00    0.0009438    0.0002263   -0.0079301
 H    9.9125964   -9.3351358   23.8375331  0.00   -0.0019720    0.0039633    0.0024291
 C    3.8755837   -9.4984847   26.5063504  0.00    0.0225491   -0.0056637    0.0013510
 H    3.4825835   -8.8420785   25.7104225  0.00   -0.0183909    0.0328761   -0.0114591
 H    3.1304649  -10.2908759   26.6894974  0.00   -0.0204436    0.0019855    0.0074091
 H    3.9884924   -8.9054735   27.4293221  0.00   -0.0075700    0.0176703    0.0020548
 C   10.2910796   -7.0807954   26.4709944  0.00    0.0269929   -0.0020481    0.0008357
 H    9.9084367   -7.0256114   27.5042052  0.00   -0.0027004    0.0007553    0.0015673
 H   11.3946072   -7.1181230   26.5067459  0.00   -0.0035532    0.0098129    0.0028672
 H    9.9907868   -6.1576079   25.9458006  0.00    0.0044973    0.0011349    0.0007670
 C    8.0878857  -10.6093300   26.3900965  0.00   -0.0057936   -0.0982435    0.0266918
 H    7.3283662  -11.3849859   26.5510876  0.00    0.0004045    0.0005838   -0.0002121
 H    8.7826639  -10.9758141   25.6147510  0.00   -0.0127483    0.0229255   -0.0047297
 H    8.6681749  -10.5115514   27.3241477  0.00   -0.0064139    0.0152728   -0.0015423
 C    5.7833219   -4.5509883   28.9947884  0.00   -0.0004897   -0.0029402   -0.0042875
 H    4.7672144   -4.8211707   28.6563120  0.00   -0.0076750   -0.0005419   -0.0077404
 H    5.7985317   -4.5751718   30.0999698  0.00   -0.0030236   -0.0049240   -0.0085876
 H    5.9782279   -3.5121600   28.6758691  0.00   -0.0036379   -0.0016548   -0.0048371
 C    9.5595819   -4.2252670   23.6813062  0.00   -0.0042538    0.0002536   -0.0031007
 H    9.5845379   -5.2341944   23.2313449  0.00   -0.0030570    0.0057965    0.0007389
 H   10.0079505   -3.5164729   22.9597150  0.00   -0.0153838   -0.0107105    0.0143066
 H   10.1998651   -4.2404061   24.5809744  0.00   -0.0083363   -0.0014900   -0.0016316
 C    7.2788675   -3.7790090   22.7384697  0.00    0.0056858    0.0043023   -0.0037475
 H    6.2641497   -3.4052092   22.9579338  0.00   -0.0146493   -0.0025450   -0.0009674
 H    7.7398176   -3.1109473   21.9890853  0.00   -0.0042025    0.0050215    0.0003847
 H    7.1864930   -4.7924823   22.3097864  0.00   -0.0099084   -0.0016591   -0.0020623
 C    8.2248872   -3.4130082   26.9003750  0.00    0.0024863    0.0236471    0.0225226
 H    9.2213320   -3.2584853   26.4516782  0.00   -0.0357960   -0.0303235   -0.0072098
 H    7.6499061   -2.4835151   26.7374574  0.00   -0.0016180   -0.0056150   -0.0026548
 H    8.3575160   -3.5318880   27.9864628  0.00   -0.0152773   -0.0131093   -0.0289015
 C    5.0396116  -10.9573765   24.8272881  0.00    0.0016632    0.0120901    0.0015169
 H    5.9925319  -11.4255988   24.5230674  0.00   -0.0045985    0.0071820    0.0077652
 H    4.2984182  -11.7616648   24.9857578  0.00   -0.0011227    0.0037980   -0.0018592
 H    4.6982929  -10.3268249   23.9873435  0.00    0.0007629   -0.0010008   -0.0116751
Yb    6.6968873   -6.9072439   25.0270504  0.00   -0.0350484    0.0472747   -0.0206828
 O    6.9053122   -7.2786794   23.0455474  0.00    0.0563880   -0.0164666   -0.0137940
 H    7.6585904   -7.6264977   22.5507277  0.00   -0.1188441    0.0284157   -0.0411759
57
 Energy =   -2082.5892176830
 N    8.2948875   -8.2486803   25.7293081  0.00    0.0762972   -0.0084384    0.0373300
 N    6.1896109   -9.0516494   25.8946639  0.00    0.0568104   -0.0102937    0.0233177
 N    6.8171453   -5.4893459   26.9573151  0.00    0.0103066    0.0323626    0.0044545
 N    7.4952075   -4.7553406   24.9448451  0.00    0.0199331    0.0397005   -0.0084790
 C    7.4960110   -9.2815547   25.9956841  0.00   -0.0395980   -0.0338853    0.0056139
 C    8.1157209   -3.8359319   24.0131371  0.00    0.0025128    0.0088370    0.0051342
 H    8.1387472   -2.8153757   24.4440370  0.00   -0.0045098    0.0089233   -0.0007520
 C    5.2095015  -10.1023772   26.0857527  0.00    0.0195871    0.0202900   -0.0063614
 H    5.5250530  -10.7705435   26.9126312  0.00   -0.0152459    0.0055720   -0.0033862
 C    7.4951214   -4.5764543   26.2656304  0.00   -0.0082184    0.0056256    0.0301257
 C    6.5543459   -6.9419921   28.8877935  0.00   -0.0073361   -0.0072441   -0.0011468
 H    7.3213112   -7.6277349   28.4892946  0.00   -0.0039734    0.0007788    0.0026225
 H    6.5719707   -6.9953676   29.9910310  0.00   -0.0011891    0.0006498   -0.0029526
 H    5.5691164   -7.2992779   28.5390669  0.00   -0.0007360   -0.0029766    0.0013274
 C    6.8105071   -5.5192632   28.4050848  0.00   -0.0022861    0.0014658   -0.0008279
 H    7.8063275   -5.2307798   28.8040926  0.00   -0.0029056    0.0008025   -0.0091522
 C    9.7331047   -8.3048195   25.7528042  0.00   -0.0003817   -0.0342965    0.0189129
 H   10.0575823   -9.1909929   26.3224176  0.00    0.0685572   -0.0397892    0.0241858
 C   10.2990599   -8.4300798   24.3390914  0.00    0.0158171   -0.0034216   -0.0130944
 H   10.0101759   -7.5548833   23.7293959  0.00    0.0022565   -0.0064548    0.0020962
 H   11.4013170   -8.4886027   24.3567104  0.00    0.0170622   -0.0012161   -0.0125220
 H    9.9125097   -9.3349788   23.8376128  0.00    0.0003303    0.0027598    0.0017148
 C    3.8761955   -9.4985716   26.5065948  0.00   -0.0024670    0.0097881   -0.0195296
 H    3.4817061   -8.8406833   25.7099682  0.00   -0.0067497    0.0149696    0.0080700
 H    3.1296197  -10.2906056   26.6897532  0.00   -0.0106081    0.0079127    0.0053406
 H    3.9882150   -8.9047776   27.4292862  0.00   -0.0043633    0.0149712    0.0016810
 C   10.2919341   -7.0808651   26.4710455  0.00    0.0122659    0.0035785    0.0015735
 H    9.9083311   -7.0255685   27.5042513  0.00    0.0004135   -0.0019408   -0.0042275
 H   11.3945065   -7.1177575   26.5068423  0.00    0.0123852    0.0130765    0.0057044
 H    9.9910216   -6.1574061   25.9458466  0.00    0.0063743   -0.0052703    0.0019125
 C    8.0879133  -10.6126061   26.3910185  0.00    0.0180193   -0.0459701    0.0135894
 H    7.3282245  -11.3849185   26.5510367  0.00   -0.0235708   -0.0267309    0.0055967
 H    8.7819716  -10.9747261   25.6146514  0.00    0.0008199    0.0034679   -0.0113330
 H    8.6677464  -10.5108593   27.3238984  0.00    0.0023769    0.0039875    0.0111528
 C    5.7833216   -4.5511282   28.9945685  0.00   -0.0132102   -0.0009718   -0.0007661
 H    4.7668400   -4.8212298   28.6559133  0.00   -0.0022153    0.0007001   -0.0057421
 H    5.7983969   -4.5754082   30.0995788  0.00   -0.0042628   -0.0035786   -0.0052050
 H    5.9780619   -3.5122915   28.6756660  0.00   -0.0025448   -0.0016880   -0.0051154
 C    9.5592054   -4.2252935   23.6813037  0.00    0.0033087   -0.0046312   -0.0012384
 H    9.5844615   -5.2339984   23.2313125  0.00   -0.0039058    0.0030865   -0.0004509
 H   10.0073501   -3.5169067   22.9602883  0.00   -0.0086184   -0.0043080    0.0063531
 H   10.1995578   -4.2404714   24.5809334  0.00   -0.0096443   -0.0007760   -0.0011997
 C    7.2790676   -3.7788469   22.7383670  0.00   -0.0099468    0.0031280   -0.0110339
 H    6.2635653   -3.4053568   22.9579460  0.00   -0.0039556   -0.0044509   -0.0016730
 H    7.7396215   -3.1107035   21.9890050  0.00   -0.0044887    0.0056866   -0.0023192
 H    7.1860814   -4.7924641   22.3096641  0.00   -0.0078831    0.0004506   -0.0011494
 C    8.2247813   -3.4123848   26.9009920  0.00   -0.0066167    0.0224029    0.0024354
 H    9.2197051   -3.2598497   26.4514037  0.00   -0.0156093   -0.0221171   -0.0116893
 H    7.6498736   -2.4837445   26.7373699  0.00   -0.0045075    0.0050126   -0.0016291
 H    8.3568659   -3.5324805   27.9852416  0.00   -0.0113036   -0.0137388   -0.0011754
 C    5.0395786  -10.9568836   24.8273783  0.00   -0.0003618    0.0067170   -0.0086809
 H    5.9924441  -11.4253322   24.5233490  0.00   -0.0040005    0.0069057    0.0066800
 H    4.2984048  -11.7614579   24.9856491  0.00   -0.0000315    0.0054648   -0.0010044
 H    4.6983217  -10.3269076   23.9866730  0.00    0.0022227   -0.0017894   -0.0083043
Yb    6.6972963   -6.9045728   25.0296696  0.00   -0.0409894    0.0098116   -0.0546545
 O    6.9066945   -7.2792424   23.0440972  0.00   -0.0251525    0.0310530    0.0739140
 H    7.6542025   -7.6257542   22.5476066  0.00   -0.0408526   -0.0077164   -0.0910609
57
 Energy =   -2082.5893917560