57
 Energy =   -1398.3716139290
Ce    6.0506281   -6.7670671   24.6189268  0.00    0.4953960    0.2634988   -0.4979084
 N    3.6806503   -5.8546373   24.4174743  0.00    0.0761343   -0.0386199    0.0585732
 N    4.3940593   -7.2212594   22.7832898  0.00    0.0512970   -0.0072714    0.1073888
 N    6.8883862   -5.6395034   26.8133359  0.00   -0.0240325   -0.0803179   -0.0370635
 N    7.0436356   -4.5369086   24.8493473  0.00   -0.1173673   -0.1213911    0.0014956
 C    2.7561138   -4.9702157   25.0876153  0.00   -0.0149600    0.0256065    0.0278783
 H    2.1674969   -4.3821373   24.3531279  0.00    0.0112156   -0.0088582   -0.0004047
 C    7.5380082   -3.5178032   23.9559275  0.00    0.0252197    0.0142672   -0.0700699
 H    7.5945166   -2.5335848   24.4655264  0.00   -0.0124494   -0.0189168    0.0104400
 C    3.4377419   -6.4171171   23.2391521  0.00   -0.0206138   -0.0278046   -0.0305114
 C    7.2789992   -4.5498466   26.1583576  0.00   -0.0018119    0.0061685   -0.0098395
 C    7.3214031   -7.2555599   28.5826127  0.00    0.0406146    0.0221757   -0.0477546
 H    8.2163156   -7.6138328   28.0443560  0.00    0.0106040   -0.0061801    0.0130207
 H    7.4891388   -7.3841566   29.6670874  0.00   -0.0101840   -0.0196366   -0.0179701
 H    6.4712852   -7.8947040   28.2860406  0.00   -0.0493155   -0.0233510    0.0098164
 C    7.0488698   -5.7932223   28.2399644  0.00   -0.0062081   -0.0048613    0.0494478
 H    7.9317350   -5.2280077   28.6027154  0.00   -0.0047420   -0.0132190   -0.0116993
 C    4.3538254   -7.8391575   21.4800462  0.00    0.0216559   -0.0176444   -0.0481522
 H    3.3078563   -7.9960339   21.1447489  0.00    0.0038844    0.0043577    0.0157283
 C    2.1648240   -6.1899427   22.4475682  0.00    0.0123766    0.0070189    0.0067069
 H    2.3951833   -5.8120312   21.4372783  0.00    0.0007105   -0.0007233    0.0010827
 H    1.6238998   -7.1438636   22.3225578  0.00    0.0055883   -0.0002227    0.0023620
 H    1.4830303   -5.4773146   22.9314951  0.00    0.0025042   -0.0020600   -0.0014089
 C    5.0155447   -9.2143050   21.5481512  0.00   -0.0008360   -0.0026029    0.0179470
 H    4.4793480   -9.8675116   22.2586688  0.00   -0.0118129   -0.0064418   -0.0019312
 H    5.0229821   -9.7084496   20.5599608  0.00    0.0024844    0.0003235    0.0094086
 H    6.0559829   -9.1109303   21.9045034  0.00    0.0121551    0.0100966   -0.0117977
 C    1.7602131   -5.7489398   25.9516489  0.00    0.0007466   -0.0062155   -0.0112799
 H    2.2977315   -6.3214545   26.7293094  0.00    0.0032835   -0.0040398    0.0028982
 H    1.0437670   -5.0737770   26.4545393  0.00    0.0046481   -0.0025757   -0.0016780
 H    1.1851564   -6.4680319   25.3414632  0.00   -0.0017844    0.0005093    0.0030572
 C    5.8329474   -5.2753031   29.0127139  0.00   -0.0015342    0.0025373   -0.0079357
 H    4.9240314   -5.8253555   28.7083559  0.00   -0.0020958   -0.0010679    0.0038774
 H    5.9620655   -5.3976371   30.1039894  0.00    0.0020072   -0.0009119   -0.0056321
 H    5.6599000   -4.2050784   28.8045962  0.00   -0.0011079   -0.0002337    0.0018694
 C    8.9413872   -3.8642899   23.4463192  0.00   -0.0002603   -0.0112120    0.0004997
 H    8.9179413   -4.8493774   22.9477504  0.00    0.0005677   -0.0026930    0.0074313
 H    9.3143065   -3.1064392   22.7330476  0.00   -0.0083135    0.0002494    0.0051173
 H    9.6623318   -3.9334828   24.2804902  0.00   -0.0007646   -0.0003075   -0.0059781
 C    6.5677385   -3.3586759   22.7866916  0.00   -0.0067558   -0.0008890    0.0061666
 H    5.5613706   -3.0876621   23.1487643  0.00   -0.0033781    0.0045582   -0.0011884
 H    6.9090789   -2.5777083   22.0840681  0.00    0.0001725   -0.0040301    0.0048709
 H    6.4798520   -4.3070548   22.2237893  0.00    0.0072559   -0.0017567   -0.0013060
 C    3.5278626   -3.9575671   25.9285199  0.00    0.0011403    0.0000153   -0.0044978
 H    4.2068074   -3.3645570   25.2934209  0.00   -0.0005688    0.0021453    0.0001385
 H    2.8399047   -3.2685919   26.4506556  0.00    0.0034331   -0.0040738   -0.0016806
 H    4.1467783   -4.4714675   26.6848375  0.00   -0.0014880    0.0005940    0.0055852
 C    7.9388267   -3.3572017   26.8246544  0.00   -0.0054577   -0.0103982   -0.0107835
 H    8.9394114   -3.1735027   26.3979035  0.00   -0.0030352   -0.0050223   -0.0011377
 H    7.3362911   -2.4510377   26.6414434  0.00   -0.0015900   -0.0034684   -0.0008268
 H    8.0473491   -3.4734585   27.9109827  0.00   -0.0019503   -0.0041264   -0.0051151
 C    5.0445682   -6.9628111   20.4297498  0.00    0.0100601    0.0059079    0.0034330
 H    6.0991528   -6.8001094   20.7162049  0.00   -0.0011952   -0.0057096    0.0105457
 H    5.0220931   -7.4297532   19.4279393  0.00   -0.0022733    0.0000242    0.0065211
 H    4.5632034   -5.9715119   20.3581094  0.00   -0.0013736    0.0013941   -0.0031129
 O    7.6700172   -7.3616598   23.2170054  0.00   -0.4954964    0.1020973    0.4372510
 H    7.9376155   -7.3970357   22.2919153  0.00    0.0078972   -0.0111994    0.0150496
57
 Energy =   -1398.3737701600
Ce    6.0716008   -6.7559076   24.5978501  0.00    0.2233288    0.2398744   -0.2469085
 N    3.6838745   -5.8562661   24.4199560  0.00   -0.0105220   -0.0259646   -0.0262320
 N    4.3962312   -7.2215609   22.7878376  0.00    0.0351106   -0.0635229   -0.0517391
 N    6.8873699   -5.6429006   26.8117692  0.00    0.0284323    0.0145882   -0.0059858
 N    7.0386689   -4.5420439   24.8494134  0.00   -0.0109980    0.0663643   -0.0939205
 C    2.7554822   -4.9691252   25.0887979  0.00    0.0328530   -0.0269229   -0.0029193
 H    2.1679738   -4.3825051   24.3531133  0.00    0.0059427   -0.0028762   -0.0058462
 C    7.5390785   -3.5171955   23.9529644  0.00   -0.0295655   -0.0494057    0.0247163
 H    7.5939928   -2.5343821   24.4659720  0.00   -0.0106306   -0.0273017    0.0046178
 C    3.4368701   -6.4182874   23.2378622  0.00    0.0401829    0.0298244    0.1278549
 C    7.2789243   -4.5495825   26.1579438  0.00   -0.0544470   -0.1119885    0.0471834
 C    7.3231225   -7.2546191   28.5805927  0.00   -0.0358325   -0.0239712    0.0046791
 H    8.2167643   -7.6140928   28.0449088  0.00    0.0314537   -0.0101924   -0.0062750
 H    7.4887075   -7.3849865   29.6663283  0.00   -0.0061481   -0.0166308   -0.0316706
 H    6.4691970   -7.8956898   28.2864575  0.00   -0.0036832    0.0090329    0.0141659
 C    7.0486080   -5.7934257   28.2420600  0.00   -0.0080061   -0.0102566   -0.0302560
 H    7.9315355   -5.2285657   28.6022226  0.00    0.0046336   -0.0026330   -0.0053585
 C    4.3547421   -7.8398976   21.4780090  0.00    0.0156200    0.0152748    0.0521354
 H    3.3080206   -7.9958417   21.1454159  0.00    0.0054707    0.0040802    0.0126883
 C    2.1653489   -6.1896376   22.4478540  0.00    0.0018474   -0.0087680   -0.0084379
 H    2.3952147   -5.8120536   21.4373262  0.00    0.0004547    0.0002305   -0.0002925
 H    1.6241368   -7.1438647   22.3226593  0.00    0.0064239    0.0053277    0.0020166
 H    1.4831377   -5.4773936   22.9314375  0.00    0.0044289    0.0001705    0.0025306
 C    5.0155083   -9.2144088   21.5489117  0.00    0.0042274   -0.0055192   -0.0050906
 H    4.4788465   -9.8677779   22.2585875  0.00   -0.0099205   -0.0038115    0.0019995
 H    5.0230860   -9.7084291   20.5603597  0.00    0.0048957   -0.0021675    0.0122170
 H    6.0564966   -9.1104973   21.9040048  0.00    0.0064415    0.0032936   -0.0097161
 C    1.7602458   -5.7491962   25.9511734  0.00    0.0022007    0.0021043    0.0098519
 H    2.2978711   -6.3216195   26.7294339  0.00    0.0006331   -0.0010083   -0.0042816
 H    1.0439653   -5.0738790   26.4544705  0.00    0.0025586   -0.0046170   -0.0013234
 H    1.1850815   -6.4680029   25.3415943  0.00   -0.0034154   -0.0033575   -0.0028668
 C    5.8328837   -5.2751929   29.0123803  0.00   -0.0063072   -0.0035108    0.0055778
 H    4.9239436   -5.8253971   28.7085221  0.00   -0.0007797   -0.0006385    0.0019963
 H    5.9621516   -5.3976734   30.1037533  0.00    0.0002710    0.0005739   -0.0056732
 H    5.6598551   -4.2050853   28.8046782  0.00   -0.0004901    0.0019852   -0.0002108
 C    8.9413786   -3.8647615   23.4463435  0.00    0.0024437   -0.0014017   -0.0031998
 H    8.9179672   -4.8494882   22.9480677  0.00    0.0050228   -0.0061461   -0.0001557
 H    9.3139575   -3.1064256   22.7332677  0.00   -0.0049669   -0.0045063    0.0034243
 H    9.6623018   -3.9334936   24.2802403  0.00   -0.0004776   -0.0008601   -0.0026103
 C    6.5674553   -3.3587086   22.7869559  0.00   -0.0014765    0.0039092   -0.0138096
 H    5.5612306   -3.0874638   23.1487173  0.00   -0.0026247    0.0023400    0.0018206
 H    6.9090896   -2.5778739   22.0842779  0.00   -0.0028668   -0.0047261    0.0006260
 H    6.4801614   -4.3071240   22.2237368  0.00    0.0031876    0.0008020   -0.0038810
 C    3.5279132   -3.9575608   25.9283324  0.00    0.0000822    0.0054443    0.0120664
 H    4.2067860   -3.3644607   25.2934299  0.00    0.0003079    0.0021820   -0.0020909
 H    2.8400528   -3.2687585   26.4505875  0.00    0.0026313    0.0009652    0.0005395
 H    4.1467172   -4.4714375   26.6850766  0.00   -0.0032059    0.0009301    0.0002033
 C    7.9385983   -3.3576395   26.8242012  0.00   -0.0066884   -0.0046465   -0.0143110
 H    8.9392857   -3.1737135   26.3978588  0.00   -0.0020245   -0.0046660   -0.0023013
 H    7.3362271   -2.4511817   26.6414121  0.00   -0.0012867   -0.0044639   -0.0011392
 H    8.0472691   -3.4736314   27.9107694  0.00   -0.0038549   -0.0074815   -0.0098483
 C    5.0449946   -6.9625542   20.4298968  0.00   -0.0004744    0.0012626   -0.0035346
 H    6.0991029   -6.8003451   20.7166531  0.00    0.0070085   -0.0021602    0.0073542
 H    5.0219972   -7.4297449   19.4282168  0.00    0.0020782    0.0024947    0.0033757
 H    4.5631465   -5.9714457   20.3579797  0.00    0.0004777   -0.0000224   -0.0012316
 O    7.6490409   -7.3573337   23.2355177  0.00   -0.1288343    0.0245323   -0.2761165
 H    7.9379500   -7.3975057   22.2925540  0.00   -0.1313765    0.0014070    0.5220794
57
 Energy =   -1398.3754220810
Ce    6.1009602   -6.7338585   24.5671544  0.00   -0.1337509    0.1907095    0.0284702
 N    3.6860088   -5.8589950   24.4206407  0.00   -0.0348973    0.0500572    0.0576506
 N    4.3999053   -7.2251731   22.7888935  0.00   -0.0244662    0.0140887   -0.0118309
 N    6.8880302   -5.6449600   26.8101461  0.00    0.0199177   -0.0171117    0.0518737
 N    7.0339392   -4.5428072   24.8444903  0.00    0.0497428    0.1142020    0.0245406
 C    2.7566983   -4.9696336   25.0896352  0.00    0.0312531   -0.0349911   -0.0304933
 H    2.1686886   -4.3829548   24.3527963  0.00    0.0143125   -0.0107422    0.0031186
 C    7.5384061   -3.5193034   23.9518049  0.00   -0.0224363   -0.0022187    0.0403896
 H    7.5929947   -2.5364914   24.4665938  0.00   -0.0085413   -0.0350371   -0.0039536
 C    3.4382724   -6.4176732   23.2435703  0.00    0.0714487   -0.0697441   -0.0227313
 C    7.2759756   -4.5552982   26.1601044  0.00   -0.0210061    0.0052122   -0.0775821
 C    7.3226576   -7.2551027   28.5791556  0.00   -0.0305723   -0.0408154    0.0001636
 H    8.2188067   -7.6148488   28.0450387  0.00    0.0074127   -0.0048245   -0.0021470
 H    7.4880213   -7.3865603   29.6640158  0.00   -0.0023227   -0.0126335   -0.0172052
 H    6.4672570   -7.8960308   28.2875585  0.00    0.0087763    0.0132580    0.0064360
 C    7.0479658   -5.7941370   28.2422078  0.00    0.0077043   -0.0118016   -0.0436745
 H    7.9316166   -5.2291698   28.6015297  0.00   -0.0013795   -0.0047023   -0.0064564
 C    4.3563332   -7.8396955   21.4790753  0.00   -0.0139482    0.0097321    0.0429203
 H    3.3084447   -7.9954536   21.1466483  0.00    0.0180685    0.0049853    0.0145367
 C    2.1658842   -6.1898365   22.4476490  0.00    0.0266279   -0.0034142    0.0329198
 H    2.3952640   -5.8120483   21.4373547  0.00    0.0077198    0.0007966   -0.0010856
 H    1.6246734   -7.1435710   22.3228544  0.00    0.0048278   -0.0016380    0.0022108
 H    1.4834622   -5.4774388   22.9315284  0.00    0.0044833   -0.0027457   -0.0017473
 C    5.0156979   -9.2147790   21.5492778  0.00    0.0049916   -0.0041452   -0.0049409
 H    4.4778968   -9.8681931   22.2586263  0.00   -0.0014577    0.0031262    0.0009484
 H    5.0234274   -9.7085170   20.5613414  0.00    0.0053304   -0.0077949    0.0003118
 H    6.0572631   -9.1099531   21.9030737  0.00    0.0004060   -0.0060573   -0.0071263
 C    1.7603904   -5.7492892   25.9513033  0.00    0.0093744   -0.0059268    0.0045431
 H    2.2980216   -6.3218023   26.7293146  0.00   -0.0000687   -0.0030549   -0.0031529
 H    1.0442679   -5.0741993   26.4543479  0.00   -0.0000029    0.0004776    0.0007613
 H    1.1848374   -6.4681465   25.3415558  0.00    0.0009741    0.0004702   -0.0007249
 C    5.8324979   -5.2752837   29.0124010  0.00   -0.0051155   -0.0012995   -0.0101358
 H    4.9238302   -5.8254614   28.7087702  0.00   -0.0044591   -0.0013278    0.0011999
 H    5.9622401   -5.3976708   30.1032585  0.00    0.0028716   -0.0011864   -0.0005775
 H    5.6597945   -4.2049821   28.8047397  0.00   -0.0004825   -0.0004180   -0.0001085
 C    8.9415027   -3.8652256   23.4461974  0.00   -0.0071836   -0.0004888    0.0013025
 H    8.9182556   -4.8499022   22.9483271  0.00    0.0109447   -0.0072790   -0.0087042
 H    9.3134047   -3.1066490   22.7336369  0.00   -0.0017041   -0.0037062   -0.0020864
 H    9.6622532   -3.9335454   24.2798962  0.00    0.0009569   -0.0012667    0.0017863
 C    6.5671423   -3.3585217   22.7864486  0.00   -0.0029267   -0.0012144   -0.0118365
 H    5.5609767   -3.0871664   23.1487796  0.00    0.0012617   -0.0006194    0.0002325
 H    6.9089488   -2.5782560   22.0844912  0.00    0.0002579    0.0028586   -0.0096727
 H    6.4805896   -4.3071319   22.2234910  0.00   -0.0028153    0.0013158   -0.0115629
 C    3.5279620   -3.9572592   25.9288208  0.00    0.0109632   -0.0036550    0.0036711
 H    4.2067872   -3.3642572   25.2933317  0.00   -0.0008661    0.0010181    0.0011243
 H    2.8403190   -3.2688384   26.4505650  0.00   -0.0044542    0.0069425    0.0039244
 H    4.1464982   -4.4713565   26.6852916  0.00   -0.0005002    0.0009339    0.0022802
 C    7.9380559   -3.3582489   26.8230676  0.00   -0.0254537   -0.0419543   -0.0064662
 H    8.9390765   -3.1741349   26.3977032  0.00   -0.0039140   -0.0100335   -0.0078258
 H    7.3361093   -2.4515353   26.6413303  0.00   -0.0060808   -0.0065285   -0.0055378
 H    8.0470011   -3.4741707   27.9100728  0.00   -0.0037574   -0.0045362   -0.0157191
 C    5.0453232   -6.9622627   20.4298346  0.00   -0.0014070   -0.0044565    0.0055351
 H    6.0994307   -6.8006477   20.7174198  0.00    0.0086024    0.0012865    0.0003898
 H    5.0220241   -7.4295950   19.4286298  0.00    0.0047170    0.0007919   -0.0035839
 H    4.5631228   -5.9713811   20.3578093  0.00    0.0010740    0.0005090    0.0007253
 O    7.6246879   -7.3524141   23.2363327  0.00    0.0089512   -0.0275824   -0.0854664
 H    7.9312585   -7.3978176   22.3207814  0.00    0.0240039   -0.0330295    0.0780029
57
 Energy =   -1398.3756772920
Ce    6.0986008   -6.7237044   24.5649568  0.00   -0.1182520    0.1587333    0.0357434
 N    3.6849527   -5.8571248   24.4234111  0.00    0.0245356   -0.0488425   -0.0618544
 N    4.3992244   -7.2247180   22.7889402  0.00    0.0381679   -0.0292061   -0.0236500
 N    6.8887883   -5.6461427   26.8121310  0.00    0.0185806    0.0303171   -0.0721453
 N    7.0353431   -4.5385319   24.8453833  0.00    0.0034888    0.0519196   -0.0314256
 C    2.7580019   -4.9710145   25.0884988  0.00   -0.0104351    0.0097078    0.0134694
 H    2.1693773   -4.3834619   24.3529227  0.00    0.0116011   -0.0089040   -0.0002249
 C    7.5375463   -3.5193954   23.9531575  0.00    0.0053539    0.0176835   -0.0145935
 H    7.5925382   -2.5381455   24.4664985  0.00   -0.0052786   -0.0038977    0.0055751
 C    3.4412695   -6.4207569   23.2426458  0.00   -0.0263912    0.0505473    0.0875150
 C    7.2749719   -4.5552336   26.1568158  0.00   -0.0019794   -0.0233863    0.0824816
 C    7.3215312   -7.2567555   28.5788842  0.00    0.0101603   -0.0058916   -0.0060096
 H    8.2192420   -7.6151095   28.0450116  0.00   -0.0046429   -0.0064706    0.0012649
 H    7.4878514   -7.3872473   29.6631160  0.00   -0.0032399   -0.0133181   -0.0075679
 H    6.4673300   -7.8955860   28.2879164  0.00   -0.0159460   -0.0080609   -0.0040317
 C    7.0482452   -5.7946870   28.2405845  0.00    0.0043681   -0.0141572    0.0106051
 H    7.9315400   -5.2294542   28.6011747  0.00   -0.0013173   -0.0085064   -0.0057973
 C    4.3558882   -7.8393478   21.4807143  0.00    0.0088238   -0.0045941    0.0066686
 H    3.3092429   -7.9951956   21.1473876  0.00    0.0049715    0.0043145    0.0140461
 C    2.1670955   -6.1899443   22.4490851  0.00    0.0291486   -0.0161133   -0.0014873
 H    2.3955946   -5.8120058   21.4373188  0.00    0.0050254   -0.0049955    0.0157265
 H    1.6249196   -7.1436206   22.3229705  0.00    0.0084984    0.0050264    0.0043569
 H    1.4836739   -5.4775562   22.9314553  0.00    0.0111107   -0.0026692    0.0057293
 C    5.0159061   -9.2149718   21.5491641  0.00   -0.0019189    0.0020071    0.0052938
 H    4.4777387   -9.8680953   22.2586579  0.00    0.0014345    0.0015420    0.0000816
 H    5.0236698   -9.7088415   20.5614313  0.00    0.0024316   -0.0052007   -0.0015870
 H    6.0573574   -9.1101374   21.9026799  0.00    0.0023082   -0.0057143   -0.0047221
 C    1.7607989   -5.7495670   25.9514524  0.00    0.0007922    0.0019936   -0.0019601
 H    2.2980391   -6.3219512   26.7291937  0.00    0.0037194   -0.0067843    0.0014783
 H    1.0443009   -5.0741934   26.4543744  0.00    0.0047245   -0.0016944   -0.0020983
 H    1.1848607   -6.4681193   25.3415430  0.00    0.0019110   -0.0001272    0.0003671
 C    5.8322617   -5.2753283   29.0119325  0.00    0.0053050   -0.0055542   -0.0047907
 H    4.9236277   -5.8255225   28.7088505  0.00   -0.0067648   -0.0021434   -0.0004525
 H    5.9623788   -5.3977251   30.1031920  0.00    0.0030194   -0.0009926   -0.0076187
 H    5.6597700   -4.2049955   28.8047490  0.00   -0.0008412    0.0009769   -0.0018122
 C    8.9411979   -3.8653121   23.4462511  0.00   -0.0067513   -0.0038714    0.0050080
 H    8.9187335   -4.8502358   22.9479992  0.00    0.0083846   -0.0022631   -0.0052032
 H    9.3132730   -3.1068096   22.7335855  0.00   -0.0044701   -0.0038632   -0.0001943
 H    9.6622887   -3.9336004   24.2799322  0.00   -0.0008630   -0.0009663   -0.0005935
 C    6.5669736   -3.3585651   22.7859585  0.00   -0.0015540   -0.0005788    0.0018306
 H    5.5610057   -3.0871539   23.1487899  0.00   -0.0005729   -0.0002487   -0.0026667
 H    6.9089553   -2.5781591   22.0841117  0.00    0.0005160    0.0010321   -0.0068071
 H    6.4805163   -4.3070773   22.2229847  0.00   -0.0022506   -0.0000151   -0.0120943
 C    3.5284388   -3.9573985   25.9289773  0.00   -0.0064284    0.0000183    0.0002389
 H    4.2067488   -3.3641900   25.2933820  0.00    0.0017491    0.0028374    0.0002645
 H    2.8401565   -3.2685572   26.4507300  0.00    0.0013896   -0.0005705   -0.0014035
 H    4.1464638   -4.4713056   26.6854270  0.00    0.0035288   -0.0015808    0.0065861
 C    7.9369267   -3.3601100   26.8227036  0.00   -0.0081143   -0.0083335   -0.0235560
 H    8.9388901   -3.1746007   26.3973593  0.00   -0.0180400   -0.0141454   -0.0020547
 H    7.3358412   -2.4518403   26.6410901  0.00   -0.0012807   -0.0161936   -0.0032445
 H    8.0468257   -3.4744017   27.9093550  0.00   -0.0068105   -0.0119390   -0.0100541
 C    5.0453161   -6.9624049   20.4300865  0.00    0.0000611   -0.0005791    0.0122185
 H    6.0997976   -6.8006215   20.7175130  0.00    0.0035335   -0.0001298   -0.0003611
 H    5.0222081   -7.4295451   19.4285225  0.00    0.0029066   -0.0000032    0.0027926
 H    4.5631560   -5.9713399   20.3578220  0.00    0.0021219   -0.0011084    0.0004489
 O    7.6218749   -7.3529332   23.2348062  0.00   -0.0347395   -0.0122728    0.0226573
 H    7.9320938   -7.3992874   22.3251260  0.00    0.0576019   -0.0401235   -0.0220395
57
 Energy =   -1398.3759899760
Ce    6.0906927   -6.7031961   24.5633344  0.00   -0.0558520    0.0764267   -0.0040249
 N    3.6852029   -5.8577312   24.4232718  0.00    0.0350130   -0.0114161    0.0167630
 N    4.4006207   -7.2258350   22.7878608  0.00    0.0106840    0.0233399    0.0576419
 N    6.8906150   -5.6459600   26.8104184  0.00   -0.0116594   -0.0228404   -0.0390183
 N    7.0368862   -4.5311198   24.8446124  0.00   -0.0524777   -0.0495853    0.0327796
 C    2.7589039   -4.9720088   25.0880011  0.00   -0.0187784    0.0226775    0.0346707
 H    2.1707903   -4.3845105   24.3530523  0.00    0.0065446   -0.0047712   -0.0073802
 C    7.5368869   -3.5185698   23.9537930  0.00    0.0374740    0.0378357   -0.0655459
 H    7.5917162   -2.5402534   24.4667154  0.00    0.0025916    0.0456115    0.0128359
 C    3.4432018   -6.4215019   23.2463697  0.00   -0.0374592   -0.0129273   -0.0518298
 C    7.2736914   -4.5565062   26.1575872  0.00    0.0390496    0.0611206    0.0220435
 C    7.3208524   -7.2589001   28.5781812  0.00    0.0253099    0.0229550   -0.0156743
 H    8.2195269   -7.6157667   28.0450615  0.00   -0.0085974   -0.0127606   -0.0014296
 H    7.4874667   -7.3887765   29.6616434  0.00   -0.0027305   -0.0126448    0.0046370
 H    6.4664704   -7.8955498   28.2881284  0.00   -0.0271725   -0.0227216   -0.0122602
 C    7.0487742   -5.7960750   28.2393947  0.00   -0.0046394   -0.0081330    0.0184631
 H    7.9313830   -5.2302518   28.6004428  0.00    0.0003308   -0.0115641   -0.0060080
 C    4.3559068   -7.8392088   21.4828691  0.00    0.0277619   -0.0169802   -0.0422415
 H    3.3104027   -7.9946519   21.1490044  0.00   -0.0113394    0.0018248    0.0107259
 C    2.1700240   -6.1909094   22.4506163  0.00   -0.0044784    0.0031904    0.0014623
 H    2.3962281   -5.8122121   21.4381264  0.00    0.0132614   -0.0090138    0.0245556
 H    1.6256581   -7.1433879   22.3233433  0.00    0.0147444    0.0041576    0.0073686
 H    1.4845091   -5.4778195   22.9316867  0.00    0.0234821   -0.0145328    0.0005545
 C    5.0160285   -9.2150781   21.5493442  0.00   -0.0008439   -0.0025312    0.0010491
 H    4.4775995   -9.8679072   22.2586941  0.00    0.0027660   -0.0013903    0.0023875
 H    5.0240676   -9.7094710   20.5614721  0.00   -0.0021579    0.0004567    0.0018159
 H    6.0576035   -9.1106190   21.9019555  0.00    0.0028271   -0.0038419    0.0003007
 C    1.7612997   -5.7497688   25.9515101  0.00   -0.0009429   -0.0005946   -0.0060311
 H    2.2982632   -6.3224794   26.7291432  0.00    0.0036684   -0.0066347    0.0022369
 H    1.0446012   -5.0742757   26.4542948  0.00    0.0083646   -0.0020897   -0.0038765
 H    1.1849802   -6.4680866   25.3415562  0.00    0.0025857   -0.0001110    0.0013186
 C    5.8322764   -5.2756724   29.0111468  0.00    0.0089415   -0.0073701   -0.0080702
 H    4.9230376   -5.8257044   28.7089265  0.00   -0.0042117   -0.0010511   -0.0003174
 H    5.9627029   -5.3978393   30.1026965  0.00    0.0038536   -0.0019984   -0.0133834
 H    5.6596995   -4.2049544   28.8046686  0.00    0.0010362   -0.0031074   -0.0030875
 C    8.9404971   -3.8656317   23.4465765  0.00    0.0057518   -0.0006014   -0.0054113
 H    8.9197181   -4.8507346   22.9473661  0.00    0.0018637    0.0044624    0.0017328
 H    9.3128666   -3.1071947   22.7335300  0.00   -0.0056552   -0.0057871    0.0033499
 H    9.6622798   -3.9337123   24.2799268  0.00   -0.0039579   -0.0004498   -0.0015500
 C    6.5666878   -3.3586342   22.7855097  0.00    0.0036094    0.0063889   -0.0020814
 H    5.5609983   -3.0871344   23.1486630  0.00   -0.0038348    0.0013539   -0.0040500
 H    6.9089863   -2.5779987   22.0833365  0.00   -0.0028729   -0.0040969   -0.0015593
 H    6.4803261   -4.3070105   22.2217687  0.00   -0.0002787    0.0019193   -0.0079288
 C    3.5286303   -3.9575397   25.9291745  0.00   -0.0063256   -0.0008512   -0.0033248
 H    4.2068001   -3.3639495   25.2934563  0.00    0.0009154    0.0018523    0.0025850
 H    2.8400604   -3.2682714   26.4508441  0.00    0.0047678   -0.0069645   -0.0052797
 H    4.1466100   -4.4713250   26.6859446  0.00    0.0022720    0.0004786    0.0064876
 C    7.9352196   -3.3626532   26.8210066  0.00    0.0127113    0.0227861    0.0159878
 H    8.9377127   -3.1758891   26.3968620  0.00   -0.0219931   -0.0191482   -0.0050784
 H    7.3354734   -2.4530543   26.6406491  0.00   -0.0032103   -0.0201460   -0.0059379
 H    8.0462626   -3.4753118   27.9079991  0.00   -0.0076541   -0.0113469   -0.0126922
 C    5.0453196   -6.9625710   20.4310245  0.00    0.0060733   -0.0006445    0.0021330
 H    6.1003929   -6.8005999   20.7176223  0.00   -0.0026967   -0.0018364    0.0011274
 H    5.0225570   -7.4294735   19.4285665  0.00    0.0008209    0.0017064    0.0142200
 H    4.5632973   -5.9713378   20.3578561  0.00    0.0020667   -0.0023041    0.0022199
 O    7.6159069   -7.3539661   23.2347885  0.00   -0.0631415    0.0095516    0.0658898
 H    7.9359879   -7.4030849   22.3293197  0.00    0.0567534   -0.0427482   -0.0344153
57
 Energy =   -1398.3762287060
Ce    6.0823231   -6.6803525   24.5601935  0.00   -0.0144281   -0.0194070   -0.0059923
 N    3.6867650   -5.8581427   24.4249843  0.00   -0.0066004   -0.0064479   -0.0099002
 N    4.4020178   -7.2254485   22.7899770  0.00    0.0016038   -0.0033100   -0.0014701
 N    6.8916500   -5.6474049   26.8078891  0.00    0.0000482    0.0141929   -0.0096288
 N    7.0355353   -4.5268618   24.8457084  0.00   -0.0308976   -0.0042049    0.0005319
 C    2.7591694   -4.9721081   25.0891480  0.00   -0.0088847    0.0107320    0.0151278
 H    2.1723695   -4.3856539   24.3527365  0.00    0.0023352   -0.0009718   -0.0074515
 C    7.5380198   -3.5162625   23.9512708  0.00    0.0121256    0.0179892   -0.0105220
 H    7.5910985   -2.5398316   24.4675646  0.00    0.0103578    0.0563077   -0.0017407
 C    3.4437930   -6.4236917   23.2463494  0.00   -0.0269412    0.0188693   -0.0007403
 C    7.2743281   -4.5545747   26.1583575  0.00    0.0144733    0.0059064    0.0160765
 C    7.3211190   -7.2598211   28.5768172  0.00   -0.0053028    0.0019860   -0.0066591
 H    8.2195876   -7.6170770   28.0449384  0.00   -0.0041637   -0.0163037   -0.0093970
 H    7.4869705   -7.3908384   29.6604097  0.00   -0.0018604   -0.0086425    0.0036950
 H    6.4644400   -7.8965489   28.2877881  0.00   -0.0041375   -0.0102802   -0.0106595
 C    7.0489204   -5.7977100   28.2387695  0.00   -0.0056534    0.0034781   -0.0060598
 H    7.9313096   -5.2315362   28.5994660  0.00    0.0016007   -0.0113714   -0.0059739
 C    4.3573825   -7.8398085   21.4829143  0.00    0.0114801   -0.0023316   -0.0129894
 H    3.3108441   -7.9940584   21.1510131  0.00   -0.0060682    0.0014743    0.0097509
 C    2.1721302   -6.1914455   22.4521964  0.00   -0.0168624   -0.0044173   -0.0133666
 H    2.3975144   -5.8128211   21.4400279  0.00    0.0173617   -0.0066572    0.0171137
 H    1.6270955   -7.1429700   22.3240621  0.00    0.0114800   -0.0022840    0.0067813
 H    1.4864848   -5.4788410   22.9318634  0.00    0.0174627   -0.0053740    0.0107413
 C    5.0161587   -9.2153866   21.5494156  0.00    0.0088200   -0.0076562    0.0021252
 H    4.4775420   -9.8678302   22.2588771  0.00    0.0036986   -0.0017003    0.0029331
 H    5.0243130   -9.7099804   20.5617008  0.00   -0.0052277    0.0010075    0.0001610
 H    6.0579757   -9.1112008   21.9012951  0.00    0.0012373   -0.0036892    0.0039184
 C    1.7617434   -5.7500099   25.9513485  0.00   -0.0011646   -0.0041096    0.0053923
 H    2.2986220   -6.3232479   26.7291620  0.00    0.0006770   -0.0034116   -0.0015847
 H    1.0452939   -5.0744607   26.4540349  0.00    0.0055745   -0.0011827   -0.0015816
 H    1.1851901   -6.4680709   25.3416173  0.00    0.0023633   -0.0013295   -0.0013219
 C    5.8326639   -5.2763546   29.0100434  0.00    0.0004121   -0.0041964   -0.0086243
 H    4.9223376   -5.8259052   28.7089986  0.00    0.0011889    0.0004051   -0.0004310
 H    5.9631900   -5.3980428   30.1015611  0.00    0.0048634   -0.0035003   -0.0120672
 H    5.6597060   -4.2050937   28.8044436  0.00    0.0042883   -0.0096137   -0.0047741
 C    8.9402642   -3.8658963   23.4464774  0.00    0.0162715   -0.0021465   -0.0094933
 H    8.9206764   -4.8509665   22.9469121  0.00   -0.0031123    0.0052356    0.0041813
 H    9.3122068   -3.1078592   22.7336782  0.00    0.0018014   -0.0004717   -0.0029051
 H    9.6620602   -3.9338338   24.2798369  0.00   -0.0053787    0.0007413   -0.0012696
 C    6.5666373   -3.3582978   22.7848118  0.00   -0.0009988    0.0041725   -0.0113242
 H    5.5607728   -3.0870205   23.1483725  0.00    0.0008730    0.0018337   -0.0048444
 H    6.9088243   -2.5781055   22.0825979  0.00   -0.0047996   -0.0002762   -0.0071595
 H    6.4801655   -4.3068195   22.2203106  0.00    0.0021316    0.0074124   -0.0028123
 C    3.5285838   -3.9576896   25.9292653  0.00    0.0040362    0.0024569    0.0063584
 H    4.2068736   -3.3636420   25.2936621  0.00   -0.0017655   -0.0009831    0.0037492
 H    2.8402201   -3.2683501   26.4506965  0.00    0.0031057   -0.0050534   -0.0028736
 H    4.1468021   -4.4712778   26.6866986  0.00   -0.0019564    0.0044895    0.0021615
 C    7.9343576   -3.3637544   26.8205929  0.00    0.0194367    0.0356135    0.0219892
 H    8.9356244   -3.1780143   26.3961020  0.00   -0.0041247   -0.0132054   -0.0103504
 H    7.3349454   -2.4551235   26.6399283  0.00   -0.0097489   -0.0060616   -0.0069394
 H    8.0453771   -3.4766780   27.9060614  0.00   -0.0039479   -0.0112674    0.0119905
 C    5.0456372   -6.9627558   20.4318227  0.00    0.0113199    0.0066956   -0.0011930
 H    6.1008069   -6.8006743   20.7178267  0.00   -0.0020639   -0.0020050    0.0025056
 H    5.0229054   -7.4292787   19.4293716  0.00    0.0002549   -0.0006212    0.0123154
 H    4.5635142   -5.9714377   20.3580061  0.00    0.0020161   -0.0045602    0.0040813
 O    7.6071289   -7.3542568   23.2355476  0.00   -0.0648970    0.0251707    0.0688103
 H    7.9411723   -7.4085118   22.3351919  0.00    0.0496283   -0.0448689   -0.0271857
57
 Energy =   -1398.3763277770