67
Energy = -1587.324692674
Ce    6.6847809   -6.8480937   25.3209036 
N     7.6302650  -11.0094616   26.0198446 
N     8.1619373   -8.8473728   25.1561979 
N     6.1776272   -9.1271135   26.2224820 
N     6.9377051   -5.3213627   27.2651685 
N     8.3292271   -3.3816579   27.3077689 
N     8.2003576   -4.8577409   25.4369870 
C     7.3242859   -9.6630200   25.7983652 
C     8.6023101   -3.8727874   24.4504417 
H     9.0320898   -2.9756126   24.9331375 
C     4.9598736   -9.9023489   26.3592580 
H     5.1859151  -10.9777193   26.4861891 
C     7.8224399   -4.5187292   26.6714187 
C     7.4353632   -6.7851493   29.1595687 
H     8.5020139   -6.8432462   28.8795107 
H     7.3622337   -6.9050776   30.2561014 
H     6.9122090   -7.6361432   28.6842178 
C     6.8302523   -5.4536223   28.7041826 
H     7.4022048   -4.6538814   29.2107400 
C     9.5953122   -9.0590760   25.1195591 
H     9.8470523  -10.0759736   25.4736859 
C    10.1210274   -8.9101297   23.6935290 
H     9.9134185   -7.8939668   23.3107111 
H    11.2125569   -9.0734982   23.6485186 
H     9.6350714   -9.6294340   23.0116278 
C     4.1843244   -9.4442641   27.5911900 
H     3.9100059   -8.3761587   27.5038965 
H     3.2527324  -10.0235399   27.7187676 
H     4.7927936   -9.5577195   28.5054643 
C     8.2113055  -11.8386956   25.0016039 
H     8.2926984  -11.2736717   24.0612529 
H     9.2202161  -12.2126773   25.2743919 
H     7.5689923  -12.7244093   24.8133288 
C    10.3010638   -8.0780330   26.0608917 
H     9.9573112   -8.2213736   27.1006492 
H    11.3970374   -8.2210343   26.0406771 
H    10.0841330   -7.0321954   25.7721755 
C     9.7227398   -3.0392462   27.2478669 
H     9.9069110   -2.0712358   26.7361017 
H    10.1435473   -2.9576393   28.2720190 
H    10.2771323   -3.8266413   26.7149840 
C     7.3820904  -11.6435969   27.2843044 
H     6.6545915  -12.4787275   27.2106136 
H     8.3242501  -12.0602914   27.6983761 
H     6.9933697  -10.9051645   28.0017139 
C     5.3716029   -5.3465874   29.1440929 
H     4.7688335   -6.1464578   28.6761436 
H     5.2734954   -5.4450740   30.2399512 
H     4.9332457   -4.3792639   28.8431599 
C     9.6754666   -4.4616387   23.5400219 
H     9.2903776   -5.3510284   23.0068536 
H    10.0050060   -3.7296253   22.7817581 
H    10.5566939   -4.7795384   24.1241801 
C     7.3920179   -3.3957608   23.6411098 
H     6.6547363   -2.9049993   24.3010398 
H     7.6894441   -2.6700895   22.8620250 
H     6.8813782   -4.2463889   23.1535088 
C     7.4893298   -2.4840145   28.0505735 
H     7.7551534   -2.4362447   29.1271653 
H     7.5699009   -1.4545934   27.6428324 
H     6.4391078   -2.8000352   27.9655859 
C     4.1050400   -9.7845438   25.0930854 
H     4.6501021  -10.1862476   24.2206404 
H     3.1581125  -10.3462897   25.1926577 
H     3.8641082   -8.7281347   24.8733156 
O     5.2433324   -6.4100477   23.8458497 
H     4.5980533   -6.1942897   23.1668949 
