57
 Energy =   -2156.9115792430
 N    3.9592233   -6.3897197   24.5818042  0.00   -0.2073577    0.0308363    0.0036446
 N    4.9124209   -7.7951578   23.1026583  0.00   -0.1152931   -0.3244864   -0.2287152
 N    6.9607442   -5.3658619   26.5391481  0.00    0.0667123    0.0258063    0.2202252
 N    7.2486013   -3.9919697   24.7097047  0.00    0.0141209   -0.0505092    0.0042218
 C    2.9821775   -5.4069641   24.9986847  0.00    0.0370537   -0.0538584   -0.0545308
 H    2.3380393   -5.1168956   24.1470524  0.00   -0.0242546    0.0131984    0.0008629
 C    7.9904873   -2.9856107   23.9437299  0.00   -0.0106032   -0.0128684    0.0311603
 H    8.0733049   -2.1072313   24.6013083  0.00    0.0057805    0.0123233   -0.0028915
 C    3.8600587   -7.0488001   23.4293607  0.00    0.0837098    0.0360103    0.1080704
 C    7.3657121   -4.2359397   26.0540540  0.00   -0.0026281    0.0222352   -0.0356901
 C    7.6160431   -7.0117933   28.2315998  0.00    0.0117688    0.0644776   -0.0273362
 H    8.6229849   -7.0857565   27.7897457  0.00    0.0217838   -0.0074847   -0.0084099
 H    7.6986261   -7.1907516   29.3181911  0.00   -0.0102385   -0.0540386   -0.0231785
 H    6.9898045   -7.8106199   27.7951534  0.00   -0.0448707   -0.0526116    0.0156632
 C    7.0178121   -5.6337170   27.9759673  0.00   -0.0363252    0.1179398   -0.1558118
 H    7.6841509   -4.9118600   28.4788800  0.00    0.0180833   -0.0254937    0.0475826
 C    5.0466585   -8.4932546   21.8443599  0.00   -0.0836218    0.0998908    0.0633934
 H    4.0574315   -8.6415979   21.3695704  0.00   -0.0049177   -0.0315658   -0.0379025
 C    2.6488515   -6.9742619   22.5215780  0.00    0.0024518    0.0156382   -0.0226642
 H    2.8796888   -6.3981512   21.6081403  0.00   -0.0086592    0.0013074   -0.0060744
 H    2.3531389   -7.9864079   22.2025333  0.00   -0.0023785   -0.0043051   -0.0035010
 H    1.7798343   -6.5124531   23.0084369  0.00   -0.0048423    0.0035321   -0.0005362
 C    5.6378784   -9.8818948   22.0767742  0.00   -0.0407470    0.0286709   -0.0161529
 H    4.9725399  -10.4848535   22.7172692  0.00   -0.0162119   -0.0105724    0.0124557
 H    5.7836060  -10.4178593   21.1217428  0.00    0.0217287   -0.0156392    0.0143986
 H    6.6132196   -9.8022709   22.5876355  0.00    0.0599348   -0.0032408   -0.0119474
 C    2.0588336   -5.9420375   26.0941743  0.00   -0.0071287   -0.0044423   -0.0144273
 H    2.6370304   -6.1968288   26.9994241  0.00    0.0214748   -0.0165828    0.0192880
 H    1.2945356   -5.1943479   26.3748437  0.00   -0.0028691   -0.0021704    0.0101560
 H    1.5402596   -6.8573372   25.7589793  0.00   -0.0012348   -0.0045254   -0.0045152
 C    5.6328031   -5.4884655   28.6008837  0.00    0.0281082   -0.0278090    0.0426483
 H    4.9080031   -6.1609757   28.1106461  0.00   -0.0173001    0.0000608   -0.0171166
 H    5.6640143   -5.7416515   29.6750922  0.00   -0.0074978    0.0046175    0.0148843
 H    5.2562746   -4.4555279   28.5017202  0.00    0.0036624   -0.0180823   -0.0101104
 C    9.3933878   -3.4578081   23.5655984  0.00    0.0062004    0.0008125   -0.0127345
 H    9.3324347   -4.3451860   22.9172807  0.00   -0.0152822   -0.0133974    0.0128770
 H    9.9332807   -2.6515520   23.0382165  0.00    0.0048477    0.0062264   -0.0003916
 H    9.9779413   -3.7376815   24.4591242  0.00   -0.0009392    0.0005131    0.0015998
 C    7.1779340   -2.5703671   22.7235878  0.00    0.0039969   -0.0015661   -0.0035114
 H    6.1620113   -2.2544654   23.0149858  0.00   -0.0005203   -0.0013053    0.0002938
 H    7.6768302   -1.7262059   22.2184349  0.00    0.0018970    0.0042734   -0.0013389
 H    7.0894199   -3.4031382   22.0078283  0.00   -0.0017847   -0.0035071    0.0078199
 C    3.6762120   -4.1231975   25.4502833  0.00   -0.0076771    0.0076144    0.0029144
 H    4.2973014   -3.7126023   24.6363751  0.00    0.0042040   -0.0090004    0.0040531
 H    2.9356492   -3.3585253   25.7475584  0.00   -0.0055533    0.0068118    0.0011337
 H    4.3357037   -4.3208217   26.3116521  0.00    0.0083959   -0.0016390   -0.0072857
 C    7.9287815   -3.0749560   26.8368967  0.00    0.0078510    0.0051782   -0.0004169
 H    8.9950515   -2.9190657   26.6004209  0.00    0.0023028    0.0069329    0.0025104
 H    7.3857194   -2.1493867   26.5873849  0.00    0.0029388    0.0028666    0.0042600
 H    7.8412153   -3.2275551   27.9187172  0.00    0.0013042    0.0069352    0.0099027
 C    5.9019242   -7.6810930   20.8673556  0.00    0.0047299   -0.0259931   -0.0144048
 H    6.8947514   -7.4762611   21.3046908  0.00    0.0005171    0.0179139    0.0104749
 H    6.0354088   -8.2165965   19.9095272  0.00    0.0037434    0.0009242   -0.0133253
 H    5.4298275   -6.7055854   20.6538833  0.00    0.0040702   -0.0058872    0.0103970
Yb    6.2349908   -7.1208439   24.8623129  0.00   -0.1106485    0.1208813    0.2541162
 O    7.7327935   -6.0430470   23.7437717  0.00    0.3145239    0.1282108   -0.1915499
 O    6.7457051   -4.9855898   23.9468587  0.00    0.0236022   -0.0111660   -0.0040646
57
 Energy =   -2156.9127334190
 N    3.9504446   -6.3884129   24.5819588  0.00    0.0131057   -0.0659860    0.0279939
 N    4.9075388   -7.8088937   23.0929760  0.00   -0.1588234    0.0016809    0.2238488
 N    6.9635690   -5.3647688   26.5484704  0.00    0.0496950    0.1207503   -0.0599907
 N    7.2491995   -3.9941076   24.7098825  0.00    0.0117311   -0.0336682    0.0015152
 C    2.9837462   -5.4092424   24.9963767  0.00   -0.0840956    0.0503363   -0.0025248
 H    2.3370125   -5.1163349   24.1470897  0.00   -0.0219621    0.0123960    0.0007142
 C    7.9900389   -2.9861554   23.9450478  0.00    0.0010184   -0.0007753    0.0004793
 H    8.0735507   -2.1067095   24.6011846  0.00    0.0023277    0.0063406    0.0014233
 C    3.8636016   -7.0472743   23.4339362  0.00    0.0161198   -0.1098952   -0.1428612
 C    7.3656017   -4.2349980   26.0525421  0.00   -0.0043671   -0.0304703    0.0586785
 C    7.6165419   -7.0090632   28.2304417  0.00   -0.0306300    0.0147685   -0.0440211
 H    8.6239075   -7.0860732   27.7893886  0.00    0.0168545   -0.0035219   -0.0104927
 H    7.6981936   -7.1930387   29.3172090  0.00   -0.0120201   -0.0321325   -0.0352752
 H    6.9879052   -7.8128465   27.7958160  0.00   -0.0097873   -0.0045427    0.0286301
 C    7.0162753   -5.6287234   27.9693704  0.00    0.0316585    0.0255626    0.0979262
 H    7.6849178   -4.9129387   28.4808934  0.00    0.0051114   -0.0193422    0.0375243
 C    5.0431166   -8.4890250   21.8470437  0.00   -0.0365706   -0.0877929   -0.1497824
 H    4.0572212   -8.6429331   21.3679663  0.00   -0.0218213   -0.0285599   -0.0551857
 C    2.6489541   -6.9735983   22.5206193  0.00    0.0265123    0.0153982    0.0273457
 H    2.8793209   -6.3980944   21.6078838  0.00   -0.0055944    0.0092531   -0.0175484
 H    2.3530366   -7.9865884   22.2023860  0.00    0.0055168    0.0042259    0.0010834
 H    1.7796284   -6.5123016   23.0084151  0.00   -0.0023430    0.0021210   -0.0076100
 C    5.6361512   -9.8806804   22.0760904  0.00    0.0055654    0.0184890    0.0059076
 H    4.9718514  -10.4853001   22.7177968  0.00   -0.0088436   -0.0001596    0.0041119
 H    5.7845231  -10.4185208   21.1223524  0.00    0.0124972   -0.0089388    0.0101875
 H    6.6157549   -9.8024076   22.5871294  0.00    0.0051216    0.0012896   -0.0327309
 C    2.0585321   -5.9422235   26.0935644  0.00    0.0133200   -0.0070023    0.0081157
 H    2.6379399   -6.1975288   27.0002414  0.00    0.0063411   -0.0099828   -0.0051654
 H    1.2944148   -5.1944374   26.3752747  0.00    0.0020958   -0.0033561    0.0046802
 H    1.5402072   -6.8575265   25.7587892  0.00   -0.0045366   -0.0075540   -0.0050742
 C    5.6339942   -5.4896415   28.6026889  0.00   -0.0155694    0.0032410   -0.0202839
 H    4.9072716   -6.1609717   28.1099215  0.00   -0.0004886    0.0099373   -0.0014502
 H    5.6636983   -5.7414547   29.6757220  0.00    0.0055695   -0.0039175    0.0308529
 H    5.2564312   -4.4562920   28.5012919  0.00    0.0020643   -0.0288960   -0.0014445
 C    9.3936505   -3.4577741   23.5650576  0.00   -0.0011221   -0.0018297    0.0047586
 H    9.3317875   -4.3457536   22.9178243  0.00   -0.0143311   -0.0120626    0.0112694
 H    9.9334863   -2.6512890   23.0381981  0.00    0.0029007    0.0079534   -0.0013063
 H    9.9779020   -3.7376602   24.4591902  0.00   -0.0010903    0.0011784   -0.0036184
 C    7.1781035   -2.5704331   22.7234381  0.00   -0.0006214   -0.0037683    0.0131466
 H    6.1619897   -2.2545201   23.0149975  0.00    0.0013444   -0.0010471   -0.0021311
 H    7.6769109   -1.7260250   22.2183769  0.00    0.0025044    0.0015529    0.0014345
 H    7.0893441   -3.4032865   22.0081584  0.00   -0.0007694   -0.0059645    0.0049191
 C    3.6758876   -4.1228736   25.4504068  0.00    0.0026149   -0.0146469   -0.0085697
 H    4.2974799   -3.7129820   24.6365466  0.00    0.0037610   -0.0042105    0.0032340
 H    2.9354151   -3.3582351   25.7476067  0.00   -0.0076608    0.0021775   -0.0010538
 H    4.3360600   -4.3208897   26.3113437  0.00    0.0051785   -0.0010078   -0.0061554
 C    7.9291152   -3.0747365   26.8368778  0.00   -0.0001843    0.0113242   -0.0092518
 H    8.9951503   -2.9187722   26.6005257  0.00    0.0059384    0.0080716    0.0015655
 H    7.3858455   -2.1492649   26.5875642  0.00    0.0047704    0.0057408    0.0050955
 H    7.8412722   -3.2272610   27.9191352  0.00    0.0009274    0.0033667    0.0012201
 C    5.9021226   -7.6821930   20.8667455  0.00   -0.0036094    0.0139632    0.0051278
 H    6.8947715   -7.4755025   21.3051337  0.00   -0.0071570    0.0109373    0.0082459
 H    6.0355649   -8.2165570   19.9089629  0.00    0.0007108   -0.0078192   -0.0149700
 H    5.4299981   -6.7058340   20.6543233  0.00    0.0097528   -0.0092015    0.0046835
Yb    6.2303060   -7.1157258   24.8730704  0.00   -0.0736824    0.1444455    0.1327945
 O    7.7461081   -6.0376192   23.7356617  0.00    0.1886549    0.0945270   -0.1229173
 O    6.7467042   -4.9860620   23.9466859  0.00    0.0661299   -0.0546181   -0.0065899
57
 Energy =   -2156.9135894380
 N    3.9455647   -6.3907413   24.5833922  0.00    0.0578765   -0.1034784   -0.0360394
 N    4.8968953   -7.8174265   23.0975886  0.00    0.0502000   -0.1008099    0.1042758
 N    6.9677136   -5.3583182   26.5514525  0.00   -0.0314406   -0.0566688   -0.0122105
 N    7.2501352   -3.9970543   24.7100653  0.00    0.0113464    0.0075478    0.0111595
 C    2.9807163   -5.4082666   24.9948092  0.00   -0.0398498    0.0182199    0.0279196
 H    2.3353203   -5.1153897   24.1471478  0.00   -0.0407571    0.0207657   -0.0206177
 C    7.9898068   -2.9865330   23.9458958  0.00    0.0056935   -0.0045980   -0.0032269
 H    8.0738167   -2.1060787   24.6011734  0.00   -0.0016347   -0.0024367    0.0029178
 C    3.8665925   -7.0515613   23.4299869  0.00   -0.1867573    0.0499954    0.0145291
 C    7.3653249   -4.2358606   26.0543938  0.00    0.0714852    0.1510419   -0.0358971
 C    7.6153939   -7.0066448   28.2276133  0.00   -0.0066894   -0.0242292   -0.0183091
 H    8.6252917   -7.0864388   27.7886625  0.00   -0.0106807    0.0011138   -0.0074915
 H    7.6973501   -7.1960054   29.3149084  0.00   -0.0128612   -0.0149792   -0.0527803
 H    6.9862477   -7.8144583   27.7975974  0.00   -0.0011004    0.0205133    0.0197557
 C    7.0168240   -5.6243702   27.9699066  0.00    0.0197459   -0.0462495    0.1078714
 H    7.6856444   -4.9145372   28.4839461  0.00    0.0227726    0.0134190    0.0553677
 C    5.0391484   -8.4905616   21.8415774  0.00    0.0172723   -0.0698756   -0.0154850
 H    4.0560463   -8.6451322   21.3643265  0.00   -0.0564398   -0.0325182   -0.0798598
 C    2.6502832   -6.9724452   22.5213240  0.00    0.0066382   -0.0065132   -0.0278854
 H    2.8788222   -6.3976153   21.6068859  0.00   -0.0086830    0.0059654   -0.0099600
 H    2.3532348   -7.9864981   22.2023462  0.00    0.0089067    0.0249569    0.0054280
 H    1.7793870   -6.5121033   23.0080393  0.00    0.0110058    0.0024880   -0.0025677
 C    5.6353322   -9.8790350   22.0759435  0.00    0.0148120   -0.0261177   -0.0028445
 H    4.9709961  -10.4855864   22.7183242  0.00    0.0060364    0.0152543   -0.0083557
 H    5.7856930  -10.4193612   21.1232209  0.00    0.0071850   -0.0062650    0.0147938
 H    6.6175881   -9.8024308   22.5852493  0.00   -0.0222725    0.0132795   -0.0368512
 C    2.0589794   -5.9426722   26.0935701  0.00   -0.0141763    0.0031547    0.0125793
 H    2.6388140   -6.1984422   27.0005080  0.00    0.0052724   -0.0063645   -0.0161446
 H    1.2944399   -5.1946514   26.3757694  0.00    0.0046991   -0.0106737    0.0080013
 H    1.5399581   -6.8580036   25.7584289  0.00   -0.0002269   -0.0017536   -0.0019322
 C    5.6339997   -5.4902227   28.6028524  0.00   -0.0103708    0.0051819    0.0004381
 H    4.9067907   -6.1604931   28.1093977  0.00    0.0044687    0.0054521   -0.0010802
 H    5.6637679   -5.7415166   29.6775893  0.00    0.0056630   -0.0007715    0.0038201
 H    5.2566296   -4.4581488   28.5009541  0.00   -0.0091422   -0.0096067    0.0013456
 C    9.3937620   -3.4578395   23.5649439  0.00   -0.0017172    0.0044732    0.0008559
 H    9.3306974   -4.3466847   22.9187014  0.00   -0.0126163   -0.0066920    0.0127257
 H    9.9337539   -2.6507439   23.0381221  0.00   -0.0013933    0.0024699    0.0015474
 H    9.9778258   -3.7375901   24.4590568  0.00    0.0010710    0.0002832   -0.0018325
 C    7.1781802   -2.5706535   22.7239707  0.00    0.0007579   -0.0027207    0.0083941
 H    6.1620406   -2.2546031   23.0149023  0.00   -0.0007618   -0.0003048   -0.0007049
 H    7.6770812   -1.7258365   22.2184078  0.00   -0.0004204   -0.0061493    0.0067203
 H    7.0892596   -3.4036632   22.0085993  0.00    0.0006218   -0.0040194    0.0067161
 C    3.6758098   -4.1233678   25.4500755  0.00   -0.0151954   -0.0040743   -0.0088471
 H    4.2977719   -3.7134195   24.6368086  0.00    0.0039310   -0.0027552   -0.0014134
 H    2.9349036   -3.3579472   25.7475872  0.00    0.0044262   -0.0044805   -0.0032881
 H    4.3365316   -4.3209786   26.3108564  0.00   -0.0001699   -0.0055101   -0.0066435
 C    7.9293172   -3.0740571   26.8364230  0.00    0.0011916    0.0091943    0.0110157
 H    8.9954972   -2.9182020   26.6006643  0.00    0.0044085    0.0070127   -0.0006640
 H    7.3861537   -2.1489132   26.5879186  0.00    0.0013430    0.0116607    0.0016760
 H    7.8413539   -3.2269147   27.9194543  0.00    0.0028691    0.0076068   -0.0110093
 C    5.9020732   -7.6822152   20.8666074  0.00   -0.0092928    0.0098218    0.0046692
 H    6.8944413   -7.4745038   21.3058044  0.00   -0.0134469    0.0038777    0.0111943
 H    6.0356948   -8.2169045   19.9078941  0.00    0.0002709    0.0022566    0.0004092
 H    5.4305693   -6.7064280   20.6548226  0.00    0.0041462    0.0041594   -0.0030452
Yb    6.2238510   -7.1056199   24.8861550  0.00   -0.0190139    0.1699956    0.0302177
 O    7.7634632   -6.0297021   23.7247073  0.00    0.0705456    0.0364102   -0.0520704
 O    6.7504874   -4.9889641   23.9462622  0.00    0.0998411   -0.0688983   -0.0070067
57
 Energy =   -2156.9142943250
 N    3.9424062   -6.3987402   24.5826172  0.00   -0.0556727    0.0593746    0.0408920
 N    4.8888528   -7.8345729   23.1057796  0.00   -0.0352923    0.0073740    0.0507344
 N    6.9703579   -5.3554428   26.5556925  0.00    0.0187313    0.1068036   -0.0684165
 N    7.2518197   -3.9998420   24.7109388  0.00    0.0436102    0.0786859   -0.0387634
 C    2.9759085   -5.4068137   24.9944711  0.00    0.0376699   -0.0526801    0.0044295
 H    2.3310864   -5.1131436   24.1459868  0.00   -0.0317110    0.0121849   -0.0104488
 C    7.9898249   -2.9872838   23.9468001  0.00    0.0027604    0.0105340   -0.0143065
 H    8.0740258   -2.1055136   24.6013055  0.00   -0.0056446   -0.0138287    0.0027609
 C    3.8591031   -7.0522040   23.4282679  0.00    0.0321964   -0.1211017   -0.0004733
 C    7.3692924   -4.2274598   26.0536198  0.00   -0.0300281   -0.1267783    0.0523893
 C    7.6140514   -7.0051952   28.2236269  0.00    0.0273216   -0.0501143    0.0276034
 H    8.6261606   -7.0867849   27.7874576  0.00   -0.0324919    0.0044191   -0.0108900
 H    7.6957040   -7.2001855   29.3094044  0.00   -0.0057961   -0.0092581   -0.0363948
 H    6.9841984   -7.8152579   27.8005796  0.00   -0.0078823    0.0261753   -0.0074840
 C    7.0181461   -5.6219002   27.9752570  0.00    0.0057013   -0.0613989    0.0358217
 H    7.6878557   -4.9154752   28.4905423  0.00    0.0277060    0.0266888    0.0660206
 C    5.0356564   -8.4951396   21.8362204  0.00    0.0067144   -0.0288196    0.0914856
 H    4.0515506   -8.6494177   21.3558262  0.00   -0.0235594   -0.0295678   -0.0626933
 C    2.6519339   -6.9716035   22.5200957  0.00   -0.0779874    0.0246238   -0.0523935
 H    2.8777555   -6.3968005   21.6053092  0.00   -0.0035745    0.0079332   -0.0128746
 H    2.3539225   -7.9849710   22.2025990  0.00    0.0084178    0.0134795   -0.0020431
 H    1.7797680   -6.5117330   23.0075349  0.00    0.0210917   -0.0016272   -0.0148951
 C    5.6350433   -9.8787725   22.0754769  0.00    0.0113322   -0.0650981   -0.0298775
 H    4.9703974  -10.4850488   22.7184418  0.00    0.0153333    0.0190147   -0.0105608
 H    5.7874192  -10.4206675   21.1250497  0.00    0.0056747   -0.0210822   -0.0025181
 H    6.6185617   -9.8016936   22.5811953  0.00   -0.0257252    0.0241993   -0.0240266
 C    2.0584820   -5.9429417   26.0941809  0.00   -0.0203644   -0.0080484    0.0059748
 H    2.6401546   -6.1998300   26.9999903  0.00    0.0024194   -0.0026729   -0.0218009
 H    1.2947156   -5.1955022   26.3768078  0.00   -0.0067538   -0.0051054    0.0173666
 H    1.5397022   -6.8585919   25.7579372  0.00    0.0016746    0.0058298    0.0034699
 C    5.6336723   -5.4907291   28.6034560  0.00    0.0046822   -0.0072001    0.0408403
 H    4.9064401   -6.1597217   28.1086769  0.00    0.0099497   -0.0027788   -0.0007151
 H    5.6640979   -5.7415710   29.6796969  0.00   -0.0050858    0.0021922   -0.0168737
 H    5.2563103   -4.4606201   28.5006195  0.00   -0.0180801    0.0187360    0.0030555
 C    9.3938259   -3.4576252   23.5647591  0.00    0.0005064    0.0012583   -0.0000430
 H    9.3287837   -4.3480791   22.9203973  0.00   -0.0085489    0.0021759    0.0136759
 H    9.9339683   -2.6500285   23.0381365  0.00   -0.0061984   -0.0016854    0.0029651
 H    9.9778104   -3.7375022   24.4588370  0.00    0.0030009    0.0002402   -0.0009752
 C    7.1783367   -2.5710336   22.7249270  0.00   -0.0003767   -0.0048111    0.0008640
 H    6.1620380   -2.2547094   23.0147742  0.00   -0.0020721    0.0003208    0.0018135
 H    7.6772334   -1.7259830   22.2188205  0.00   -0.0023205   -0.0123432    0.0108050
 H    7.0892000   -3.4042850   22.0094841  0.00    0.0023744   -0.0013788    0.0084407
 C    3.6747593   -4.1239893   25.4492723  0.00   -0.0030748   -0.0078241   -0.0032178
 H    4.2983196   -3.7140763   24.6370084  0.00   -0.0021991   -0.0033337   -0.0048409
 H    2.9346387   -3.3578751   25.7473861  0.00    0.0080773   -0.0040150   -0.0039496
 H    4.3370449   -4.3214022   26.3099372  0.00   -0.0122059   -0.0071764   -0.0132398
 C    7.9296566   -3.0728270   26.8366498  0.00    0.0331414    0.0705115    0.0131064
 H    8.9961066   -2.9171855   26.6007760  0.00    0.0021059    0.0132554    0.0027389
 H    7.3865517   -2.1478634   26.5883878  0.00    0.0042813    0.0216622    0.0044053
 H    7.8416167   -3.2260702   27.9191931  0.00   -0.0003322    0.0004611   -0.0062941
 C    5.9015200   -7.6819099   20.8666126  0.00   -0.0119779   -0.0169457    0.0087881
 H    6.8933389   -7.4731663   21.3071957  0.00   -0.0183648   -0.0036017    0.0134598
 H    6.0358657   -8.2170817   19.9067936  0.00    0.0015282    0.0159676    0.0158014
 H    5.4313840   -6.7067886   20.6552086  0.00   -0.0089528    0.0209794   -0.0086645
Yb    6.2156279   -7.0849324   24.9026270  0.00    0.0450643    0.1397939   -0.0922967
 O    7.7868971   -6.0189117   23.7095358  0.00   -0.0294256   -0.0330651    0.0280370
 O    6.7601667   -4.9958606   23.9454111  0.00    0.1071098   -0.0326768    0.0045797
57
 Energy =   -2156.9146701840
 N    3.9380491   -6.3999151   24.5839206  0.00   -0.0154028   -0.0014853   -0.0219556
 N    4.8836601   -7.8433776   23.1110594  0.00   -0.0175402    0.0103985    0.0271893
 N    6.9724254   -5.3497045   26.5553379  0.00   -0.0370661   -0.0795126    0.0778250
 N    7.2545683   -3.9977390   24.7096786  0.00    0.0173798    0.0049647    0.0254203
 C    2.9754785   -5.4086420   24.9944367  0.00   -0.0292044    0.0001914   -0.0245846
 H    2.3275921   -5.1114937   24.1449366  0.00   -0.0024911   -0.0043900    0.0250041
 C    7.9899400   -2.9872156   23.9466669  0.00    0.0232320    0.0256256   -0.0176487
 H    8.0738846   -2.1058421   24.6014839  0.00   -0.0045311   -0.0090987    0.0020581
 C    3.8567515   -7.0573972   23.4280391  0.00   -0.0017959   -0.0533263    0.0479977
 C    7.3700063   -4.2286156   26.0552644  0.00    0.0550581    0.1067711   -0.0426973
 C    7.6147000   -7.0066348   28.2229413  0.00    0.0008814   -0.0259980   -0.0073142
 H    8.6251411   -7.0867628   27.7863935  0.00   -0.0129338   -0.0018904   -0.0192088
 H    7.6946468   -7.2026654   29.3051071  0.00    0.0045820   -0.0173519    0.0183133
 H    6.9827925   -7.8145619   27.8016798  0.00   -0.0121366    0.0137909   -0.0209276
 C    7.0189090   -5.6232907   27.9789948  0.00    0.0341289    0.0127137   -0.0069050
 H    7.6902043   -4.9147385   28.4967168  0.00   -0.0041117   -0.0106152    0.0387906
 C    5.0342073   -8.4982834   21.8381519  0.00   -0.0458048   -0.0295238    0.0217643
 H    4.0483025   -8.6528285   21.3489065  0.00    0.0419635   -0.0184369   -0.0124146
 C    2.6492509   -6.9701299   22.5170398  0.00   -0.0034523   -0.0043644   -0.0173518
 H    2.8770656   -6.3960689   21.6040002  0.00   -0.0006542    0.0188742   -0.0292203
 H    2.3546183   -7.9836213   22.2026307  0.00   -0.0098301   -0.0058465   -0.0193185
 H    1.7808917   -6.5116178   23.0066530  0.00   -0.0136464    0.0168962   -0.0017757
 C    5.6353222   -9.8815322   22.0738846  0.00    0.0034748   -0.0227438   -0.0074309
 H    4.9707786  -10.4839512   22.7180379  0.00    0.0091608   -0.0031778    0.0007932
 H    5.7885254  -10.4222437   21.1258491  0.00    0.0056947   -0.0388377   -0.0365283
 H    6.6179808   -9.8002635   22.5781839  0.00   -0.0118935    0.0183290   -0.0123235
 C    2.0572774   -5.9434102   26.0947074  0.00   -0.0038262   -0.0034316    0.0002309
 H    2.6409477   -6.2006350   26.9988131  0.00    0.0011872   -0.0047832   -0.0154715
 H    1.2945497   -5.1961476   26.3780959  0.00   -0.0135372    0.0007756    0.0195643
 H    1.5396623   -6.8586106   25.7578544  0.00   -0.0059235   -0.0030463    0.0027669
 C    5.6338071   -5.4913486   28.6056858  0.00   -0.0019175    0.0060120   -0.0106463
 H    4.9066818   -6.1594872   28.1082632  0.00    0.0154064   -0.0017197    0.0086188
 H    5.6640154   -5.7414810   29.6799308  0.00   -0.0080481   -0.0061064    0.0138727
 H    5.2553533   -4.4609676   28.5005764  0.00   -0.0089468    0.0073773    0.0086020
 C    9.3938937   -3.4574531   23.5646280  0.00    0.0038818    0.0062784    0.0012440
 H    9.3274697   -4.3486645   22.9218331  0.00   -0.0055650    0.0019484    0.0089653
 H    9.9338013   -2.6497608   23.0382764  0.00   -0.0033024   -0.0019724   -0.0005897
 H    9.9779389   -3.7374509   24.4586958  0.00    0.0019700    0.0015036   -0.0006279
 C    7.1784081   -2.5714258   22.7253972  0.00   -0.0064819    0.0011414   -0.0024034
 H    6.1619413   -2.2547464   23.0147965  0.00    0.0000698   -0.0011076    0.0028997
 H    7.6772029   -1.7266002   22.2194971  0.00   -0.0005770   -0.0090456    0.0065420
 H    7.0892752   -3.4046436   22.0102956  0.00    0.0024142   -0.0044080    0.0051551
 C    3.6740724   -4.1245839   25.4487584  0.00    0.0039020   -0.0155324   -0.0085473
 H    4.2984944   -3.7145511   24.6368906  0.00   -0.0060237   -0.0056043   -0.0046862
 H    2.9348827   -3.3580131   25.7471165  0.00    0.0044272   -0.0038502   -0.0035960
 H    4.3367630   -4.3219301   26.3089021  0.00   -0.0108343   -0.0074117   -0.0077688
 C    7.9312986   -3.0691383   26.8373738  0.00    0.0001400    0.0055048    0.0008103
 H    8.9964925   -2.9161074   26.6009488  0.00    0.0222039    0.0203791   -0.0004439
 H    7.3869310   -2.1463949   26.5888054  0.00   -0.0020703    0.0365561    0.0005058
 H    7.8417370   -3.2256239   27.9187902  0.00    0.0033309    0.0087149    0.0052558
 C    5.9007305   -7.6825827   20.8669643  0.00   -0.0261018   -0.0003289    0.0440274
 H    6.8919977   -7.4726624   21.3084764  0.00   -0.0167575   -0.0059077    0.0120130
 H    6.0360203   -8.2164393   19.9069671  0.00   -0.0001847    0.0094612    0.0156498
 H    5.4313729   -6.7060224   20.6550195  0.00   -0.0075568    0.0048476   -0.0035564
Yb    6.2135638   -7.0686538   24.9067693  0.00    0.0454359    0.0966625   -0.1263977
 O    7.7972113   -6.0150691   23.7032702  0.00   -0.0235407   -0.0677534    0.0510159
 O    6.7695811   -5.0006145   23.9451983  0.00    0.0718069    0.0326406   -0.0105134
57
 Energy =   -2156.9149771820
 N    3.9340593   -6.4007653   24.5839891  0.00    0.0156744   -0.0350184   -0.0400839
 N    4.8782139   -7.8487030   23.1169274  0.00    0.0671932   -0.0855863   -0.0582656
 N    6.9723295   -5.3489088   26.5587422  0.00    0.0251377    0.0555143   -0.0018871
 N    7.2574406   -3.9961217   24.7100285  0.00    0.0377184   -0.0092674    0.0100786
 C    2.9734511   -5.4097769   24.9930744  0.00   -0.0320422    0.0188864   -0.0027446
 H    2.3250080   -5.1105521   24.1455295  0.00   -0.0086154   -0.0046062    0.0142784
 C    7.9911959   -2.9858449   23.9456729  0.00    0.0136443    0.0164292   -0.0029703
 H    8.0735686   -2.1065115   24.6017129  0.00    0.0012141    0.0096349    0.0053983
 C    3.8556615   -7.0645134   23.4296131  0.00   -0.1287356    0.0757601    0.0645363
 C    7.3730555   -4.2246882   26.0546679  0.00   -0.0018279   -0.0288047    0.0450990
 C    7.6151036   -7.0088726   28.2219610  0.00   -0.0136639    0.0136228    0.0009650
 H    8.6238522   -7.0868599   27.7846323  0.00    0.0066890   -0.0107949   -0.0261086
 H    7.6941197   -7.2053996   29.3029853  0.00    0.0112858   -0.0227623    0.0358520
 H    6.9811439   -7.8134300   27.8014534  0.00   -0.0213186   -0.0019092   -0.0338871
 C    7.0212790   -5.6234198   27.9814355  0.00    0.0086582    0.0237159    0.0062311
 H    7.6916262   -4.9148685   28.5030862  0.00   -0.0100131   -0.0225051    0.0236296
 C    5.0306466   -8.5022189   21.8400412  0.00   -0.0137811    0.0028039    0.0077167
 H    4.0482038   -8.6562190   21.3433492  0.00    0.0365506   -0.0162402    0.0101593
 C    2.6472305   -6.9692057   22.5141802  0.00    0.0485837   -0.0258953    0.0110996
 H    2.8765450   -6.3945617   21.6015339  0.00    0.0022587    0.0153665   -0.0212613
 H    2.3546121   -7.9830129   22.2016590  0.00   -0.0251871   -0.0122877   -0.0315050
 H    1.7809606   -6.5106745   23.0059058  0.00   -0.0232813    0.0202495   -0.0004401
 C    5.6356864   -9.8845182   22.0724004  0.00   -0.0129321    0.0055486   -0.0127324
 H    4.9714658  -10.4833717   22.7178295  0.00    0.0041589   -0.0268795    0.0116307
 H    5.7896302  -10.4253657   21.1245518  0.00    0.0012517   -0.0355968   -0.0350967
 H    6.6170330   -9.7983402   22.5753806  0.00    0.0058954    0.0125886   -0.0010147
 C    2.0563266   -5.9439603   26.0950966  0.00   -0.0088699    0.0109385   -0.0100013
 H    2.6415827   -6.2014712   26.9972063  0.00    0.0061770   -0.0073625   -0.0061395
 H    1.2937376   -5.1965473   26.3800101  0.00   -0.0098593   -0.0037709    0.0177414
 H    1.5393159   -6.8588017   25.7579247  0.00   -0.0117412   -0.0091249    0.0027162
 C    5.6337697   -5.4914825   28.6066461  0.00    0.0157309    0.0125065   -0.0069605
 H    4.9076323   -6.1593822   28.1084083  0.00    0.0127828   -0.0070886    0.0056883
 H    5.6635576   -5.7417427   29.6809180  0.00   -0.0109886   -0.0057754    0.0142847
 H    5.2542521   -4.4609248   28.5009764  0.00   -0.0018007   -0.0003473    0.0098207
 C    9.3941408   -3.4570346   23.5646172  0.00    0.0060409    0.0051417    0.0010969
 H    9.3262300   -4.3490109   22.9233205  0.00   -0.0024385    0.0017489    0.0041122
 H    9.9335303   -2.6496466   23.0383342  0.00    0.0034247    0.0003524   -0.0065089
 H    9.9781260   -3.7373348   24.4585502  0.00    0.0017419    0.0034408    0.0010403
 C    7.1781246   -2.5716565   22.7256410  0.00   -0.0030657    0.0009297   -0.0024218
 H    6.1618858   -2.2548322   23.0149533  0.00   -0.0018653   -0.0009673    0.0050360
 H    7.6771648   -1.7274790   22.2202996  0.00    0.0010320   -0.0007843   -0.0019339
 H    7.0894486   -3.4051365   22.0111364  0.00    0.0016584   -0.0062728    0.0020406
 C    3.6738465   -4.1258532   25.4479477  0.00   -0.0130321   -0.0106269   -0.0140130
 H    4.2983168   -3.7151826   24.6365853  0.00   -0.0053794   -0.0066675   -0.0085365
 H    2.9352408   -3.3582848   25.7467475  0.00    0.0073679   -0.0084225   -0.0057104
 H    4.3360309   -4.3226712   26.3077615  0.00   -0.0047119   -0.0129525    0.0003214
 C    7.9324849   -3.0661863   26.8378575  0.00    0.0015832    0.0084764   -0.0075908
 H    8.9979132   -2.9142873   26.6010571  0.00    0.0205791    0.0261870    0.0033466
 H    7.3871175   -2.1434944   26.5891455  0.00    0.0041814    0.0322114    0.0039972
 H    7.8419909   -3.2248746   27.9188064  0.00    0.0040656    0.0098373    0.0063524
 C    5.8988478   -7.6830488   20.8694691  0.00   -0.0372074    0.0015160    0.0394955
 H    6.8901942   -7.4725738   21.3100017  0.00   -0.0142755   -0.0075350    0.0179638
 H    6.0361211   -8.2155363   19.9078281  0.00   -0.0052208    0.0109608    0.0321951
 H    5.4310050   -6.7052746   20.6547291  0.00   -0.0081476   -0.0096563    0.0062419
Yb    6.2141852   -7.0520324   24.9036837  0.00    0.0225319    0.0397183   -0.1090267
 O    7.8038823   -6.0155226   23.7010829  0.00    0.0130987   -0.0669669    0.0502678
 O    6.7799429   -5.0023657   23.9445075  0.00    0.0199254    0.0686906   -0.0239762
57
 Energy =   -2156.9153305330