55
 Energy =   -1321.1298778760
Ce    6.2329340   -6.9576537   24.9820528  0.00    0.4976245   -0.3584863    0.5574504
 N    7.8435716   -8.8975654   24.8059127  0.00   -0.7366167    1.9848648   -3.9337039
 N    6.0041074   -9.1717304   26.0798880  0.00   -1.7577389    0.0559355   -0.8794468
 N    6.7666743   -5.4610158   26.8934017  0.00    0.4455044   -2.7734884    0.5486370
 N    7.7710627   -4.9752101   24.9218401  0.00    1.0239382   -0.5481276   -0.1130869
 C    7.1668853   -9.6705248   25.6436355  0.00  -16.3771247    9.7197088  -16.9218481
 C    8.1961340   -3.9946850   23.9231036  0.00   -0.7381249   -2.5912036   -0.9808746
 H    8.4144137   -3.1525029   24.3743848  0.00    0.6524904    2.5283134    1.2635865
 C    4.8972649  -10.0511469   26.4868671  0.00   -0.4325283    1.9637468   -2.0356079
 H    5.2024234  -10.6339480   27.2133918  0.00    0.8276796   -1.8021751    2.2089080
 C    7.5635180   -4.6368652   26.1944512  0.00   -3.1719869   -4.2970298   -3.8614136
 C    7.5258511   -6.9617285   28.6681950  0.00   -1.2579512    3.1100489   -0.5607489
 H    8.3880846   -7.0357136   28.2525715  0.00    3.1399554   -0.3064290   -1.5210952
 H    7.6200749   -7.0528155   29.6191082  0.00    0.3839691   -0.4016675    3.5332612
 H    6.9495472   -7.6532026   28.3355588  0.00   -2.1083458   -2.5352282   -1.2345043
 C    6.9235570   -5.6012181   28.3465813  0.00   -1.8844611   -2.0335400   -1.2857017
 H    7.5329890   -4.9034280   28.6662445  0.00    1.7944166    2.0527086    1.0060660
 C    9.3041065   -9.0340749   24.6499925  0.00   -1.2156521    2.6303099   -1.5115567
 H    9.5952341   -9.8758365   25.0587557  0.00    0.9984133   -2.2678644    0.9419449
 C    9.6480055   -9.0513932   23.1655719  0.00   -0.7843029    0.0034186    3.3726112
 H    9.3596652   -8.2308210   22.7603956  0.00   -1.0542035    2.9997993   -1.5303022
 H   10.5972684   -9.1458929   23.0580338  0.00    3.5024842   -0.3444710   -0.4335492
 H    9.2034416   -9.7905946   22.7430472  0.00   -1.6284464   -2.6632711   -1.5675814
 C    3.7811940   -9.1647266   27.0001599  0.00    2.5173377   -2.0619586   -1.0345238
 H    3.4568064   -8.6119269   26.2851251  0.00   -1.2206682    2.0288411   -2.6164491
 H    3.0652211   -9.7108028   27.3323735  0.00   -2.6880707   -1.9469308    1.2289838
 H    4.1142260   -8.6081194   27.7082896  0.00    1.1819628    2.0509218    2.6011137
 C    9.9934112   -7.8709428   25.3508300  0.00   -1.4752692   -2.6918087   -1.5269410
 H    9.8516140   -7.9391594   26.2980039  0.00   -0.4946186   -0.1739804    3.4766898
 H   10.9349147   -7.8984485   25.1655936  0.00    3.4878223   -0.0769711   -0.6409240
 H    9.6280985   -7.0429975   25.0312942  0.00   -1.3286776    3.0466753   -1.1467501
 C    7.9443989   -9.8994758   26.2768079  0.00   19.8470376  -12.6606376    6.5410608
 H    7.4578160  -10.5619917   26.6087795  0.00   -3.2051519   -5.7691499    4.1088429
 H    8.6572403  -10.5723800   26.2139922  0.00    2.6085814   -1.0003199   -0.5811776
 H    7.8292279   -9.4822419   26.9234657  0.00   -0.7867361    7.7764522   11.8818421
 C    5.5814845   -5.4400045   29.0517312  0.00    3.0846423   -0.2796243   -1.5862712
 H    4.9786631   -6.1244238   28.7527137  0.00   -2.2386868   -2.5053098   -1.0996310
 H    5.7072544   -5.5159506   30.0003016  0.00    0.4056117   -0.2839260    3.5000673
 H    5.2136482   -4.5772569   28.8458381  0.00   -1.4028321    3.1374170   -0.7321245
 C    9.4334924   -4.5065954   23.1995046  0.00   -2.7476218    1.2547681    1.6669256
 H    9.2278121   -5.3343497   22.7599634  0.00   -0.7288031   -3.0601116   -1.6096679
 H    9.7134706   -3.8589650   22.5478698  0.00    1.0593863    2.3445294   -2.4081417
 H   10.1399544   -4.6473327   23.8340381  0.00    2.6012155   -0.5516597    2.2884010
 C    7.0648079   -3.7501903   22.9332558  0.00    2.5429693   -0.4395250    2.2933424
 H    6.3064221   -3.3875362   23.3972032  0.00   -2.8108419    1.3136952    1.6428245
 H    7.3558602   -3.1288303   22.2617346  0.00    1.0239771    2.2807973   -2.5055521
 H    6.8187676   -4.5793326   22.5170351  0.00   -0.9214803   -3.0337214   -1.5601299
 C    7.1743528   -3.4516436   26.5278466  0.00   -1.2272789    2.7078951    0.3562970
 H    8.1228728   -3.5734789   26.6118548  0.00    4.7238559    1.6549028    1.5523041
 H    6.9948645   -2.5828444   26.1603300  0.00   -0.4999169    2.8014223   -1.9918909
 H    6.7645226   -3.5237697   27.3928843  0.00   -1.3655529    0.1965954    2.9789834
 C    4.4034516  -10.9118441   25.3341199  0.00    1.1089974    1.8934992    2.6464125
 H    5.1225885  -11.4611802   25.0139282  0.00    2.6048963   -2.0314696   -1.2271296
 H    3.6842582  -11.4708327   25.6374123  0.00   -2.6576018   -2.1000672    1.0741593
 H    4.0915695  -10.3466287   24.6235647  0.00   -1.1208570    2.0566689   -2.6311770
55
 Energy =   -1321.3664414910
Ce    6.2337929   -6.9582724   24.9830144  0.00    0.4806855   -0.3077090    0.5333265
 N    7.8423010   -8.8941406   24.7991251  0.00   -0.8003869    2.1176719   -3.7594846
 N    6.0010746   -9.1716341   26.0783701  0.00   -1.9624008    0.2161455   -0.8449037
 N    6.7674428   -5.4658016   26.8943483  0.00    0.4263893   -2.7310238    0.4497549
 N    7.7728297   -4.9761560   24.9216451  0.00    0.9948881   -0.6272138   -0.1912531
 C    7.1386267   -9.6537535   25.6144366  0.00   -8.8507768    7.0638983  -10.7764283
 C    8.1948607   -3.9991561   23.9214114  0.00   -0.6507211   -2.2433386   -0.7523928
 H    8.4155398   -3.1481403   24.3765654  0.00    0.5850594    2.2675204    1.1298907
 C    4.8965187  -10.0477587   26.4833540  0.00   -0.3012534    1.7073859   -1.7162856
 H    5.2038516  -10.6370580   27.2172027  0.00    0.7446421   -1.6184596    1.9806935
 C    7.5580446   -4.6442799   26.1877884  0.00   -3.2157029   -3.7742084   -3.5712993
 C    7.5236800   -6.9563624   28.6672274  0.00   -1.1385702    2.7802894   -0.5052718
 H    8.3935023   -7.0362425   28.2499470  0.00    2.8932090   -0.2884868   -1.4018647
 H    7.6207367   -7.0535089   29.6252049  0.00    0.3568794   -0.3758655    3.2663787
 H    6.9459088   -7.6575773   28.3334285  0.00   -1.9282462   -2.3417282   -1.1304378
 C    6.9203048   -5.6047273   28.3443627  0.00   -1.6019596   -1.7180047   -1.1716873
 H    7.5360847   -4.8998863   28.6679805  0.00    1.6014509    1.8343460    0.8991446
 C    9.3020093   -9.0295362   24.6473846  0.00   -1.1090294    2.2091515   -1.3286427
 H    9.5969573   -9.8797497   25.0603813  0.00    0.9025433   -1.9800529    0.7877854
 C    9.6466529   -9.0513871   23.1713917  0.00   -0.7157990    0.0274143    3.0099655
 H    9.3578469   -8.2256447   22.7577554  0.00   -0.9654130    2.7599461   -1.4290362
 H   10.6033128   -9.1464871   23.0572863  0.00    3.2252636   -0.3173207   -0.3989751
 H    9.2006326   -9.7951899   22.7403426  0.00   -1.4999644   -2.4541183   -1.4503853
 C    3.7855377   -9.1682849   26.9983740  0.00    2.2510153   -1.8376027   -0.9348171
 H    3.4547003   -8.6084265   26.2806096  0.00   -1.1351626    1.8739533   -2.4003379
 H    3.0605828   -9.7141626   27.3344932  0.00   -2.4822736   -1.7928003    1.1350412
 H    4.1162653   -8.6045809   27.7127771  0.00    1.0847398    1.8950590    2.4014752
 C    9.9908658   -7.8755875   25.3481957  0.00   -1.3550463   -2.3975078   -1.3782249
 H    9.8507606   -7.9394596   26.3040034  0.00   -0.4556001   -0.1568865    3.2053128
 H   10.9409333   -7.8985812   25.1644884  0.00    3.2172355   -0.0736919   -0.5919870
 H    9.6258061   -7.0377404   25.0293159  0.00   -1.2108615    2.8141300   -1.0456668
 C    7.9786452   -9.9213219   26.2880946  0.00   11.6041789   -8.7979568    3.1330325
 H    7.4522856  -10.5719466   26.6158692  0.00   -3.0055315   -5.2321421    3.7509049
 H    8.6617416  -10.5741062   26.2129894  0.00    3.3200459   -1.7927075   -0.6392857
 H    7.8278704   -9.4688238   26.9439678  0.00   -0.6819041    6.5239373    9.3813548
 C    5.5868065   -5.4404873   29.0489937  0.00    2.7573034   -0.2600382   -1.4399532
 H    4.9747997   -6.1287471   28.7508159  0.00   -2.0734878   -2.3011116   -1.0035056
 H    5.7079535   -5.5164409   30.0063407  0.00    0.3714343   -0.2621114    3.2247671
 H    5.2112270   -4.5718436   28.8445745  0.00   -1.3013804    2.8933402   -0.6721245
 C    9.4287518   -4.5044302   23.2023814  0.00   -2.4714843    1.1062285    1.4961386
 H    9.2265552   -5.3396298   22.7571864  0.00   -0.6560536   -2.8184280   -1.4864428
 H    9.7152991   -3.8549194   22.5437151  0.00    0.9778703    2.1616835   -2.2220899
 H   10.1444431   -4.6482845   23.8379874  0.00    2.4017441   -0.5118324    2.1059110
 C    7.0691963   -3.7509488   22.9372130  0.00    2.2762136   -0.4138295    2.0601638
 H    6.3015724   -3.3852694   23.4000379  0.00   -2.5985655    1.2117968    1.5103739
 H    7.3576277   -3.1248948   22.2574114  0.00    0.9416856    2.1021660   -2.3107022
 H    6.8171782   -4.5845673   22.5143431  0.00   -0.8598356   -2.7852661   -1.4462017
 C    7.1722349   -3.4469713   26.5284615  0.00   -0.8308494    2.2906066    0.3937290
 H    8.1310236   -3.5706235   26.6145336  0.00    4.3277922    1.6180614    1.4910905
 H    6.9940017   -2.5780107   26.1568930  0.00   -0.4985795    2.7537952   -1.9680148
 H    6.7621659   -3.5234307   27.3980246  0.00   -1.3019730    0.1995195    2.8379956
 C    4.4053656  -10.9085772   25.3386855  0.00    1.0029759    1.7161444    2.3643107
 H    5.1270837  -11.4646857   25.0118101  0.00    2.3969195   -1.8753415   -1.1354074
 H    3.6796728  -11.4744567   25.6392649  0.00   -2.4501092   -1.9357679    0.9899631
 H    4.0896359  -10.3430802   24.6190238  0.00   -1.0368800    1.8825208   -2.4352096
55
 Energy =   -1321.6326431740
Ce    6.2359556   -6.9595062   24.9853930  0.00    0.4152473   -0.2759526    0.4950967
 N    7.8383543   -8.8838319   24.7823722  0.00   -0.7588170    2.1145727   -3.4457415
 N    5.9912139   -9.1700287   26.0745872  0.00   -1.7441408    0.3721015   -0.9232651
 N    6.7693451   -5.4782897   26.8960577  0.00    0.3929445   -2.6062529    0.2240722
 N    7.7773279   -4.9793596   24.9204646  0.00    0.9210133   -0.7744870   -0.3510740
 C    7.1260585   -9.6310683   25.5877348  0.00   -5.3414570    5.5001838   -7.5501802
 C    8.1921777   -4.0082320   23.9187902  0.00   -0.4802335   -1.5779861   -0.3065153
 H    8.4179950   -3.1386239   24.3812940  0.00    0.4562829    1.7710980    0.8808220
 C    4.8956197  -10.0408202   26.4766104  0.00   -0.0106238    1.2200795   -1.1529951
 H    5.2069869  -10.6438604   27.2255131  0.00    0.5866963   -1.2761180    1.5601810
 C    7.5429868   -4.6597851   26.1723447  0.00   -3.2327755   -2.8076053   -2.9501275
 C    7.5188571   -6.9447320   28.6650970  0.00   -0.8540394    2.0471217   -0.3654855
 H    8.4059690   -7.0375112   28.2439054  0.00    2.3683823   -0.2383660   -1.1497727
 H    7.6222862   -7.0551526   29.6393246  0.00    0.2961799   -0.3114390    2.6947374
 H    6.9376583   -7.6676922   28.3285861  0.00   -1.5624456   -1.9264926   -0.9168433
 C    6.9139518   -5.6114927   28.3393669  0.00   -1.0548535   -1.1080995   -0.9615930
 H    7.5427717   -4.8922161   28.6717412  0.00    1.2378353    1.4231662    0.6920682
 C    9.2972768   -9.0208956   24.6419228  0.00   -0.9548327    1.5114242   -0.9952524
 H    9.6007761   -9.8878330   25.0634483  0.00    0.7063753   -1.4752267    0.5301314
 C    9.6435981   -9.0511695   23.1839629  0.00   -0.5341604    0.0490449    2.2041752
 H    9.3537127   -8.2137685   22.7515204  0.00   -0.7830257    2.2597013   -1.2031280
 H   10.6172043   -9.1478540   23.0555702  0.00    2.6371827   -0.2590491   -0.3227525
 H    9.1941729   -9.8057657   22.7340687  0.00   -1.2308773   -2.0081120   -1.1913459
 C    3.7949571   -9.1759489   26.9944200  0.00    1.6537961   -1.3467531   -0.6897630
 H    3.4497663   -8.6003336   26.2703078  0.00   -0.9460523    1.5426967   -1.9541093
 H    3.0498641   -9.7218844   27.3393935  0.00   -2.0391946   -1.4709361    0.9309274
 H    4.1209217   -8.5963939   27.7231439  0.00    0.8862142    1.5584443    1.9736276
 C    9.9850449   -7.8855795   25.3423754  0.00   -1.0400580   -1.7633114   -1.0382512
 H    9.8487982   -7.9401217   26.3178241  0.00   -0.3747803   -0.1241599    2.6284829
 H   10.9548118   -7.8989100   25.1619329  0.00    2.6348692   -0.0684432   -0.4850686
 H    9.6206438   -7.0255858   25.0248558  0.00   -0.9724355    2.3193698   -0.8397850
 C    8.0012606   -9.9474812   26.2897351  0.00    6.5348380   -5.7978232    3.6391320
 H    7.4391207  -10.5941503   26.6318888  0.00   -2.5221490   -4.3371716    3.1961348
 H    8.6798047  -10.5854010   26.2098097  0.00    3.6082015   -2.1581653   -0.6647874
 H    7.8251084   -9.4433401   26.9779727  0.00   -0.0798469    4.3954676    6.0580993
 C    5.5983390   -5.4416184   29.0428771  0.00    2.0318580   -0.2036971   -1.1017128
 H    4.9658199   -6.1386337   28.7465307  0.00   -1.7171785   -1.8756467   -0.8088986
 H    5.7095432   -5.5175731   30.0202353  0.00    0.3077862   -0.2160153    2.6336281
 H    5.2055820   -4.5593664   28.8416878  0.00   -1.0770765    2.3736225   -0.5494772
 C    9.4183495   -4.4998679   23.2086663  0.00   -1.8443371    0.7944985    1.1168319
 H    9.2237927   -5.3517699   22.7507685  0.00   -0.5140497   -2.3097525   -1.2237475
 H    9.7195211   -3.8455985   22.5341278  0.00    0.7962339    1.7742338   -1.8198848
 H   10.1548136   -4.6505044   23.8470524  0.00    1.9708385   -0.4241124    1.7233874
 C    7.0787315   -3.7527685   22.9458737  0.00    1.6798580   -0.3361488    1.5438607
 H    6.2903401   -3.3800425   23.4065325  0.00   -2.1400541    0.9930795    1.2349195
 H    7.3616791   -3.1158339   22.2474461  0.00    0.7735409    1.7192275   -1.8888682
 H    6.8134300   -4.5965286   22.5080756  0.00   -0.7215788   -2.2685430   -1.2008631
 C    7.1698836   -3.4379392   26.5304264  0.00   -0.1652131    1.6442368    0.4800192
 H    8.1495705   -3.5632693   26.6212086  0.00    3.5691535    1.5392607    1.3645665
 H    6.9916973   -2.5654375   26.1478691  0.00   -0.4776525    2.5194857   -1.8555536
 H    6.7563756   -3.5224962   27.4106356  0.00   -1.1460271    0.2137247    2.4859047
 C    4.4096112  -10.9012998   25.3485688  0.00    0.7488578    1.2911828    1.7481539
 H    5.1374002  -11.4727819   25.0068973  0.00    1.9614403   -1.5390612   -0.9357884
 H    3.6691103  -11.4828020   25.6435302  0.00   -2.0056104   -1.5861411    0.8137871
 H    4.0851522  -10.3350201   24.6084846  0.00   -0.8532439    1.5275363   -2.0113900
55
 Energy =   -1321.8852198000
Ce    6.2390045   -6.9615920   24.9892997  0.00    0.3245767   -0.2379892    0.4315653
 N    7.8321871   -8.8658774   24.7555183  0.00   -0.6077127    1.9377530   -2.9415704
 N    5.9778365   -9.1656994   26.0662650  0.00   -1.4957743    0.5664775   -1.0251748
 N    6.7724182   -5.4994428   26.8963238  0.00    0.3568706   -2.3622461   -0.0561497
 N    7.7845803   -4.9869815   24.9163344  0.00    0.7762556   -0.8556973   -0.4189052
 C    7.1102921   -9.5971707   25.5503789  0.00   -1.8447277    3.4734672   -4.1400851
 C    8.1893422   -4.0167465   23.9194276  0.00   -0.3154124   -0.9917137    0.0465289
 H    8.4209045   -3.1272494   24.3869253  0.00    0.3382802    1.3184425    0.6704462
 C    4.8976380  -10.0340496   26.4709722  0.00    0.2107566    0.7775623   -0.6586852
 H    5.2108151  -10.6521694   27.2356556  0.00    0.4604826   -0.9560302    1.1750870
 C    7.5154871   -4.6764976   26.1518763  0.00   -3.0944636   -1.9719140   -2.3030962
 C    7.5136789   -6.9326996   28.6630091  0.00   -0.5015870    1.2203865   -0.1890695
 H    8.4222069   -7.0391600   28.2360037  0.00    1.7771266   -0.1730466   -0.8692957
 H    7.6243523   -7.0573156   29.6579869  0.00    0.2223074   -0.2244034    2.0487134
 H    6.9270941   -7.6809832   28.3223790  0.00   -1.1702636   -1.4543361   -0.6869880
 C    6.9089950   -5.6164340   28.3327599  0.00   -0.5745594   -0.5866715   -0.7504322
 H    7.5505890   -4.8831615   28.6760875  0.00    0.9141955    1.0595211    0.4901230
 C    9.2903469   -9.0132135   24.6359374  0.00   -0.8159108    0.9014324   -0.6809753
 H    9.6053417   -9.8966201   25.0660542  0.00    0.4870030   -1.0191607    0.3049462
 C    9.6403902   -9.0505854   23.1967985  0.00   -0.3106213    0.0470848    1.2673524
 H    9.3484160   -8.1982731   22.7429770  0.00   -0.5872907    1.7118217   -0.9360428
 H   10.6352681   -9.1496171   23.0533962  0.00    1.9846344   -0.1954620   -0.2256127
 H    9.1857202   -9.8195263   22.7258679  0.00   -0.9329082   -1.5099260   -0.8920020
 C    3.8046465   -9.1838081   26.9903496  0.00    0.9794477   -0.7994816   -0.3880515
 H    3.4431350   -8.5896931   26.2570113  0.00   -0.7222115    1.1656610   -1.4711639
 H    3.0358270   -9.7320110   27.3457975  0.00   -1.5334961   -1.1217104    0.7001750
 H    4.1269852   -8.5856524   27.7367478  0.00    0.6728113    1.1769820    1.4933413
 C    9.9785090   -7.8959036   25.3360463  0.00   -0.6608144   -1.0567399   -0.6342070
 H    9.8462166   -7.9409235   26.3358897  0.00   -0.2909426   -0.0985033    1.9745544
 H   10.9728945   -7.8994379   25.1586054  0.00    1.9725248   -0.0754953   -0.3721493
 H    9.6141465   -7.0095372   25.0192449  0.00   -0.7206003    1.7647172   -0.6231981
 C    8.0158791   -9.9731479   26.3216727  0.00    2.6940018   -4.3374694    1.6589536
 H    7.4212764  -10.6242840   26.6548528  0.00   -2.1656720   -3.5848928    2.6147716
 H    8.7128146  -10.6067165   26.2039789  0.00    3.1373174   -1.7786167   -0.5963523
 H    7.8286706   -9.4217151   27.0045548  0.00    0.1135410    3.7487878    4.8376555
 C    5.6102837   -5.4429391   29.0359910  0.00    1.2115626   -0.1123646   -0.6982587
 H    4.9538652   -6.1514234   28.7410963  0.00   -1.3087707   -1.4135693   -0.6068493
 H    5.7116762   -5.5190649   30.0382365  0.00    0.2503002   -0.1643006    1.9621068
 H    5.1980800   -4.5430486   28.8379228  0.00   -0.8173251    1.7924986   -0.4177342
 C    9.4072611   -4.4953997   23.2153723  0.00   -1.1074514    0.4716796    0.6858850
 H    9.2204701   -5.3676267   22.7423140  0.00   -0.3777805   -1.7462591   -0.9257233
 H    9.7249346   -3.8333903   22.5216347  0.00    0.5808330    1.3427463   -1.3593748
 H   10.1683624   -4.6534517   23.8588589  0.00    1.4815881   -0.3224333    1.3026223
 C    7.0886277   -3.7550646   22.9552003  0.00    0.9969451   -0.2132635    0.9575384
 H    6.2755381   -3.3732321   23.4149771  0.00   -1.6197385    0.7467146    0.9345164
 H    7.3669907   -3.1040666   22.2345088  0.00    0.5948933    1.2863597   -1.4032716
 H    6.8083158   -4.6119863   22.4996861  0.00   -0.5539348   -1.7080423   -0.9175697
 C    7.1733402   -3.4287810   26.5351008  0.00    0.2959952    1.3168061    0.5687644
 H    8.1742348   -3.5508151   26.6318280  0.00    2.8353556    1.4408344    1.2221050
 H    6.9877856   -2.5457790   26.1329589  0.00   -0.4166568    1.9753150   -1.5927613
 H    6.7477889   -3.5205875   27.4291265  0.00   -0.9233036    0.2455392    1.9816785
 C    4.4141328  -10.8934472   25.3589136  0.00    0.4649450    0.7802578    1.0524250
 H    5.1508579  -11.4833804   25.0004320  0.00    1.4794462   -1.1568368   -0.7044032
 H    3.6553757  -11.4937054   25.6491468  0.00   -1.5031798   -1.1866779    0.6289150
 H    4.0792743  -10.3246859   24.5945388  0.00   -0.6436525    1.1487471   -1.5261122
55
 Energy =   -1322.0687816760
Ce    6.2419762   -6.9639964   24.9936759  0.00    0.2288355   -0.2212816    0.3609948
 N    7.8264432   -8.8454702   24.7262082  0.00   -0.4864508    1.6475084   -2.4017660
 N    5.9631718   -9.1580917   26.0541073  0.00   -0.9630399    0.5917622   -1.1516959
 N    6.7761278   -5.5240860   26.8937255  0.00    0.3058212   -2.0857249   -0.2630539
 N    7.7922393   -4.9971684   24.9110634  0.00    0.6043145   -0.8609001   -0.4189286
 C    7.1115735   -9.5714939   25.5260214  0.00   -0.9252811    2.5994479   -2.6362620
 C    8.1870237   -4.0234212   23.9226254  0.00   -0.1828459   -0.5631421    0.2317614
 H    8.4237818   -3.1159184   24.3928092  0.00    0.2444087    0.9596721    0.5179250
 C    4.9017001  -10.0286747   26.4673066  0.00    0.3069079    0.4546596   -0.3283581
 H    5.2149971  -10.6604640   27.2458959  0.00    0.3763414   -0.6997086    0.8763363
 C    7.4818906   -4.6922142   26.1309426  0.00   -2.8297247   -1.2172400   -1.7188234
 C    7.5105952   -6.9250385   28.6621501  0.00   -0.2270729    0.5822075   -0.0513438
 H    8.4377569   -7.0406226   28.2283388  0.00    1.3083362   -0.1160868   -0.6461776
 H    7.6263117   -7.0592048   29.6761613  0.00    0.1609885   -0.1477424    1.5332418
 H    6.9169039   -7.6937943   28.3163899  0.00   -0.8627115   -1.0659135   -0.5031802
 C    6.9061757   -5.6190662   28.3259423  0.00   -0.2475724   -0.2440804   -0.5602230
 H    7.5583606   -4.8740730   28.6800674  0.00    0.6669684    0.7810294    0.3194563
 C    9.2822866   -9.0076799   24.6306560  0.00   -0.6510832    0.5301771   -0.4876708
 H    9.6092005   -9.9045936   25.0677775  0.00    0.3025216   -0.6733398    0.1336667
 C    9.6385215   -9.0500453   23.2042223  0.00   -0.1287178    0.0421198    0.5383864
 H    9.3432881   -8.1831524   22.7344565  0.00   -0.4319991    1.2739199   -0.7141289
 H   10.6526730   -9.1513224   23.0515599  0.00    1.4725717   -0.1459169   -0.1451242
 H    9.1774789   -9.8327505   22.7180727  0.00   -0.6985948   -1.1161033   -0.6532363
 C    3.8107279   -9.1887943   26.9881748  0.00    0.4651956   -0.3833574   -0.1565648
 H    3.4366966   -8.5794295   26.2441232  0.00   -0.5344761    0.8563538   -1.0861578
 H    3.0223882   -9.7419951   27.3519453  0.00   -1.1258159   -0.8483514    0.5150890
 H    4.1329451   -8.5752958   27.7499315  0.00    0.5059411    0.8719594    1.1108287
 C    9.9738586   -7.9025915   25.3318538  0.00   -0.3626949   -0.5102590   -0.3230169
 H    9.8435913   -7.9418161   26.3531812  0.00   -0.2268775   -0.0818006    1.4519067
 H   10.9901114   -7.9003012   25.1552734  0.00    1.4401389   -0.0877590   -0.2840589
 H    9.6079439   -6.9938648   25.0138698  0.00   -0.5227856    1.3135765   -0.4534030
 C    8.0199688  -10.0102983   26.3312145  0.00    0.6556712   -2.4691105    2.4921180
 H    7.3999819  -10.6585644   26.6797936  0.00   -1.8063024   -2.9542960    2.1772550
 H    8.7449129  -10.6243044   26.1977470  0.00    2.8290983   -1.5296404   -0.5377768
 H    7.8319956   -9.3864923   27.0473322  0.00    0.6180047    2.0145302    2.6040938
 C    5.6178989   -5.4435718   29.0310922  0.00    0.5787968   -0.0428846   -0.3893747
 H    4.9422217   -6.1638386   28.7358117  0.00   -0.9713938   -1.0433308   -0.4500878
 H    5.7140406   -5.5205304   30.0552742  0.00    0.2121620   -0.1222136    1.4235420
 H    5.1908371   -4.5272747   28.8342290  0.00   -0.6076915    1.3320461   -0.3161470
 C    9.4001681   -4.4924819   23.2199199  0.00   -0.5364299    0.2233256    0.3512363
 H    9.2172527   -5.3830089   22.7341399  0.00   -0.2774717   -1.2887728   -0.6804622
 H    9.7298492   -3.8215325   22.5097928  0.00    0.4050755    1.0036219   -0.9904536
 H   10.1813384   -4.6563042   23.8703277  0.00    1.0901188   -0.2401226    0.9710959
 C    7.0948271   -3.7565926   22.9616653  0.00    0.4708676   -0.1180680    0.5037328
 H    6.2612183   -3.3666890   23.4232207  0.00   -1.2037433    0.5500522    0.7000050
 H    7.3723008   -3.0928473   22.2223602  0.00    0.4582784    0.9418603   -1.0113216
 H    6.8033250   -4.6269607   22.4914984  0.00   -0.4110807   -1.2599421   -0.6816827
 C    7.1801953   -3.4168634   26.5420744  0.00    0.6379525    0.9226561    0.6033564
 H    8.2004078   -3.5354788   26.6444044  0.00    2.2015392    1.3380980    1.0811616
 H    6.9835352   -2.5274124   26.1169842  0.00   -0.3723667    1.5166813   -1.3513081
 H    6.7390539   -3.5176480   27.4476786  0.00   -0.7238503    0.2793180    1.5335424
 C    4.4172778  -10.8884037   25.3656530  0.00    0.2393464    0.3787613    0.5165487
 H    5.1638769  -11.4935277   24.9942459  0.00    1.1006038   -0.8515866   -0.5182874
 H    3.6422578  -11.5040705   25.6548130  0.00   -1.1008783   -0.8671190    0.4869266
 H    4.0736187  -10.3146436   24.5810283  0.00   -0.4704416    0.8507378   -1.1249476
55
 Energy =   -1322.2040677740
Ce    6.2445501   -6.9670482   24.9983561  0.00    0.1363981   -0.1909971    0.2719150
 N    7.8204470   -8.8238305   24.6956346  0.00   -0.3471718    1.3055891   -1.8761065
 N    5.9529923   -9.1491314   26.0365078  0.00   -0.7903400    0.6214044   -1.1684580
 N    6.7801767   -5.5521166   26.8882354  0.00    0.2550259   -1.7619452   -0.3929706
 N    7.7996587   -5.0097018   24.9049824  0.00    0.4037731   -0.7706053   -0.3222978
 C    7.1075303   -9.5419593   25.5011147  0.00    0.0883062    1.5661792   -1.1742135
 C    8.1854051   -4.0281909   23.9275126  0.00   -0.0818459   -0.2713714    0.2743900
 H    8.4265726   -3.1048301   24.3991005  0.00    0.1698148    0.6719647    0.4063581
 C    4.9069806  -10.0246578   26.4652024  0.00    0.3293795    0.2462450   -0.1169115
 H    5.2197867  -10.6685914   27.2562369  0.00    0.3222153   -0.4818928    0.6291826
 C    7.4429200   -4.7041089   26.1105929  0.00   -2.4341886   -0.7215249   -1.2772179
 C    7.5095247   -6.9217243   28.6625188  0.00   -0.0302263    0.1338557    0.0461443
 H    8.4529459   -7.0418449   28.2207672  0.00    0.9294814   -0.0741623   -0.4626910
 H    7.6281546   -7.0607307   29.6942334  0.00    0.1120982   -0.0860465    1.1141440
 H    6.9068733   -7.7061353   28.3105684  0.00   -0.6126501   -0.7505875   -0.3528019
 C    6.9052002   -5.6198530   28.3193018  0.00   -0.0506309   -0.0575557   -0.3866124
 H    7.5660683   -4.8649489   28.6833631  0.00    0.4752482    0.5642958    0.1721420
 C    9.2740788   -9.0030308   24.6251950  0.00   -0.4804835    0.2942470   -0.3586309
 H    9.6121348   -9.9116156   25.0683780  0.00    0.1321231   -0.4068321    0.0087758
 C    9.6381187   -9.0494807   23.2061678  0.00    0.0037822    0.0372862    0.0145500
 H    9.3382742   -8.1681966   22.7258880  0.00   -0.3046788    0.9196916   -0.5375845
 H   10.6698946   -9.1530284   23.0501031  0.00    1.0641165   -0.1070243   -0.0847819
 H    9.1692503   -9.8457512   22.7105309  0.00   -0.5067998   -0.7967150   -0.4648930
 C    3.8133356   -9.1910110   26.9877843  0.00    0.1161815   -0.0879382    0.0022172
 H    3.4304579   -8.5695058   26.2314687  0.00   -0.3809049    0.6034055   -0.7716568
 H    3.0093564   -9.7521014   27.3579268  0.00   -0.7929800   -0.6258467    0.3663573
 H    4.1389417   -8.5651209   27.7629557  0.00    0.3664405    0.6258603    0.8012422
 C    9.9710104   -7.9055952   25.3296866  0.00   -0.1448256   -0.1228319   -0.1035305
 H    9.8408237   -7.9428577   26.3700205  0.00   -0.1757547   -0.0690437    1.0268030
 H   11.0067095   -7.9016526   25.1518645  0.00    1.0063116   -0.0968704   -0.2116237
 H    9.6019515   -6.9784339   25.0086579  0.00   -0.3640007    0.9507952   -0.3156251
 C    8.0133884  -10.0336533   26.3690108  0.00    0.0043755   -2.3515169    1.2211609
 H    7.3765097  -10.6964761   26.7077950  0.00   -1.5053046   -2.4306874    1.7782283
 H    8.7827542  -10.6438291   26.1904931  0.00    1.8547356   -0.7663736   -0.3069581
 H    7.8441359   -9.3681753   27.0707911  0.00    0.6605611    1.7593273    2.2214596
 C    5.6211987   -5.4436208   29.0279511  0.00    0.1355543    0.0108676   -0.1679020
 H    4.9308415   -6.1760005   28.7305467  0.00   -0.6967576   -0.7443772   -0.3255763
 H    5.7167985   -5.5219665   30.0715786  0.00    0.1795456   -0.0859940    0.9843075
 H    5.1837102   -4.5116804   28.8304659  0.00   -0.4409077    0.9588207   -0.2328230
 C    9.3969864   -4.4912190   23.2223195  0.00   -0.1262664    0.0559026    0.1122834
 H    9.2140308   -5.3980221   22.7262375  0.00   -0.1988379   -0.9175554   -0.4805081
 H    9.7342981   -3.8097149   22.4984024  0.00    0.2654381    0.7272875   -0.6913482
 H   10.1939812   -4.6591138   23.8817314  0.00    0.7756095   -0.1742823    0.7005718
 C    7.0974063   -3.7575197   22.9653151  0.00    0.1020712   -0.0417020    0.1797017
 H    6.2471075   -3.3603030   23.4314746  0.00   -0.8678879    0.3901803    0.5081903
 H    7.3778248   -3.0819705   22.2108483  0.00    0.3445979    0.6629085   -0.6930941
 H    6.7985002   -4.6416357   22.4835033  0.00   -0.2934900   -0.8982550   -0.4873413
 C    7.1919928   -3.4062013   26.5511241  0.00    0.7443582    0.7324304    0.5721107
 H    8.2273434   -3.5169108   26.6589581  0.00    1.7120249    1.2298285    0.9508247
 H    6.9785182   -2.5092549   26.0993915  0.00   -0.3070303    1.0191819   -1.0674791
 H    6.7301553   -3.5133453   27.4662984  0.00   -0.5317727    0.3158023    1.1264267
 C    4.4189571  -10.8861572   25.3688355  0.00    0.0861039    0.0913533    0.1358891
 H    5.1767911  -11.5034209   24.9882363  0.00    0.7916186   -0.6053153   -0.3691829
 H    3.6295504  -11.5140789   25.6607289  0.00   -0.7753210   -0.6086583    0.3721153
 H    4.0681957  -10.3047156   24.5679362  0.00   -0.3296118    0.6090076   -0.7969824
55
 Energy =   -1322.3042395650
Ce    6.2462759   -6.9704867   25.0027688  0.00    0.0453515   -0.1688450    0.1674832
 N    7.8151016   -8.8020363   24.6646619  0.00   -0.2729776    0.8678181   -1.2639113
 N    5.9406008   -9.1370785   26.0136357  0.00   -0.4396713    0.4887575   -1.1359305
 N    6.7845772   -5.5829287   26.8793291  0.00    0.2034862   -1.3945644   -0.4021417
 N    7.8055508   -5.0237966   24.8995355  0.00    0.2087453   -0.5854880   -0.2147867
 C    7.1141305   -9.5197150   25.4890577  0.00    0.3165406    1.0824561   -0.5206516
 C    8.1848393   -4.0304202   23.9334097  0.00   -0.0227073   -0.1319818    0.1886280
 H    8.4290906   -3.0947585   24.4057897  0.00    0.1158279    0.4581311    0.3313186
 C    4.9136227  -10.0220958   26.4651111  0.00    0.2255387    0.1399785   -0.0499013
 H    5.2254196  -10.6757356   27.2659032  0.00    0.2966797   -0.3105831    0.4454661
 C    7.3997602   -4.7127474   26.0905704  0.00   -1.9422232   -0.3641131   -0.9094362
 C    7.5109485   -6.9237430   28.6644038  0.00    0.0713233   -0.0868297    0.0960424